 Entering Gaussian System, Link 0=g16
 Input=000055.gjf
 Output=000055.log
 Initial command:
 /opt/g09/l1.exe "/tmp/Gau-28531.inp" -scrdir="/tmp/"
 Entering Link 1 = /opt/g09/l1.exe PID=     28532.
  
 Copyright (c) 1988,1990,1992,1993,1995,1998,2003,2009,2013,
            Gaussian, Inc.  All Rights Reserved.
  
 This is part of the Gaussian(R) 09 program.  It is based on
 the Gaussian(R) 03 system (copyright 2003, Gaussian, Inc.),
 the Gaussian(R) 98 system (copyright 1998, Gaussian, Inc.),
 the Gaussian(R) 94 system (copyright 1995, Gaussian, Inc.),
 the Gaussian 92(TM) system (copyright 1992, Gaussian, Inc.),
 the Gaussian 90(TM) system (copyright 1990, Gaussian, Inc.),
 the Gaussian 88(TM) system (copyright 1988, Gaussian, Inc.),
 the Gaussian 86(TM) system (copyright 1986, Carnegie Mellon
 University), and the Gaussian 82(TM) system (copyright 1983,
 Carnegie Mellon University). Gaussian is a federally registered
 trademark of Gaussian, Inc.
  
 This software contains proprietary and confidential information,
 including trade secrets, belonging to Gaussian, Inc.
  
 This software is provided under written license and may be
 used, copied, transmitted, or stored only in accord with that
 written license.
  
 The following legend is applicable only to US Government
 contracts under FAR:
  
                    RESTRICTED RIGHTS LEGEND
  
 Use, reproduction and disclosure by the US Government is
 subject to restrictions as set forth in subparagraphs (a)
 and (c) of the Commercial Computer Software - Restricted
 Rights clause in FAR 52.227-19.
  
 Gaussian, Inc.
 340 Quinnipiac St., Bldg. 40, Wallingford CT 06492
  
  
 ---------------------------------------------------------------
 Warning -- This program may not be used in any manner that
 competes with the business of Gaussian, Inc. or will provide
 assistance to any competitor of Gaussian, Inc.  The licensee
 of this program is prohibited from giving any competitor of
 Gaussian, Inc. access to this program.  By using this program,
 the user acknowledges that Gaussian, Inc. is engaged in the
 business of creating and licensing software in the field of
 computational chemistry and represents and warrants to the
 licensee that it is not a competitor of Gaussian, Inc. and that
 it will not use this program in any manner prohibited above.
 ---------------------------------------------------------------
  

 Cite this work as:
 Gaussian 09, Revision D.01,
 M. J. Frisch, G. W. Trucks, H. B. Schlegel, G. E. Scuseria, 
 M. A. Robb, J. R. Cheeseman, G. Scalmani, V. Barone, B. Mennucci, 
 G. A. Petersson, H. Nakatsuji, M. Caricato, X. Li, H. P. Hratchian, 
 A. F. Izmaylov, J. Bloino, G. Zheng, J. L. Sonnenberg, M. Hada, 
 M. Ehara, K. Toyota, R. Fukuda, J. Hasegawa, M. Ishida, T. Nakajima, 
 Y. Honda, O. Kitao, H. Nakai, T. Vreven, J. A. Montgomery, Jr., 
 J. E. Peralta, F. Ogliaro, M. Bearpark, J. J. Heyd, E. Brothers, 
 K. N. Kudin, V. N. Staroverov, T. Keith, R. Kobayashi, J. Normand, 
 K. Raghavachari, A. Rendell, J. C. Burant, S. S. Iyengar, J. Tomasi, 
 M. Cossi, N. Rega, J. M. Millam, M. Klene, J. E. Knox, J. B. Cross, 
 V. Bakken, C. Adamo, J. Jaramillo, R. Gomperts, R. E. Stratmann, 
 O. Yazyev, A. J. Austin, R. Cammi, C. Pomelli, J. W. Ochterski, 
 R. L. Martin, K. Morokuma, V. G. Zakrzewski, G. A. Voth, 
 P. Salvador, J. J. Dannenberg, S. Dapprich, A. D. Daniels, 
 O. Farkas, J. B. Foresman, J. V. Ortiz, J. Cioslowski, 
 and D. J. Fox, Gaussian, Inc., Wallingford CT, 2013.
 
 ******************************************
 Gaussian 09:  EM64L-G09RevD.01 24-Apr-2013
                 5-Dec-2021 
 ******************************************
 %nprocshared=24
 Will use up to   24 processors via shared memory.
 %mem=10GB
 %chk=000055.chk
 ----------------------------------------------------------
 #p b3lyp 6-31g(d,p) EmpiricalDispersion=GD3 opt freq=raman
 ----------------------------------------------------------
 1/14=-1,18=20,19=15,26=3,38=1/1,3;
 2/9=110,12=2,17=6,18=5,40=1/2;
 3/5=1,6=6,7=101,11=2,16=1,25=1,30=1,71=1,74=-5,124=31/1,2,3;
 4//1;
 5/5=2,38=5/2;
 6/7=2,8=2,9=2,10=2,28=1/1;
 7//1,2,3,16;
 1/14=-1,18=20,19=15,26=3/3(2);
 2/9=110/2;
 99//99;
 2/9=110/2;
 3/5=1,6=6,7=101,11=2,16=1,25=1,30=1,71=1,74=-5,124=31/1,2,3;
 4/5=5,16=3,69=1/1;
 5/5=2,38=5/2;
 7//1,2,3,16;
 1/14=-1,18=20,19=15,26=3/3(-5);
 2/9=110/2;
 6/7=2,8=2,9=2,10=2,19=2,28=1/1;
 99/9=1/99;
 Leave Link    1 at Sun Dec  5 16:43:33 2021, MaxMem=  1342177280 cpu:         1.2
 (Enter /opt/g09/l101.exe)
 ----------------------------------------------------------------------
 gdb 55 4.69474 4.66938 4.47909 1.384 49.04 -0.2601 0.0664 0.3265 449.0
 573 0.134977 -233.560626 -233.553779 -233.552834 -233.589759 25.128
 ----------------------------------------------------------------------
 Symbolic Z-matrix:
 Charge =  0 Multiplicity = 1
 C                    -0.00856   1.5427    0.00153 
 C                     0.00507   0.00703   0.01856 
 C                     0.76138  -0.51839   1.24766 
 C                    -1.42013  -0.54933  -0.02116 
 O                     0.6259   -0.48364  -1.17657 
 H                     1.01361   1.94021   0.00281 
 H                    -0.5146    1.90702  -0.89706 
 H                    -0.52215   1.94883   0.87918 
 H                     0.28131  -0.20166   2.17944 
 H                     0.79966  -1.61132   1.23023 
 H                     1.79097  -0.14073   1.26083 
 H                    -1.93855  -0.19911  -0.91828 
 H                    -1.39938  -1.64259  -0.04564 
 H                    -1.98851  -0.2306    0.85727 
 H                     1.53111  -0.15488  -1.1921 
 
 NAtoms=     15 NQM=       15 NQMF=       0 NMMI=      0 NMMIF=      0
                NMic=       0 NMicF=      0.
                    Isotopes and Nuclear Properties:
 (Nuclear quadrupole moments (NQMom) in fm**2, nuclear magnetic moments (NMagM)
  in nuclear magnetons)

  Atom         1           2           3           4           5           6           7           8           9          10
 IAtWgt=          12          12          12          12          16           1           1           1           1           1
 AtmWgt=  12.0000000  12.0000000  12.0000000  12.0000000  15.9949146   1.0078250   1.0078250   1.0078250   1.0078250   1.0078250
 NucSpn=           0           0           0           0           0           1           1           1           1           1
 AtZEff=   0.0000000   0.0000000   0.0000000   0.0000000   0.0000000   0.0000000   0.0000000   0.0000000   0.0000000   0.0000000
 NQMom=    0.0000000   0.0000000   0.0000000   0.0000000   0.0000000   0.0000000   0.0000000   0.0000000   0.0000000   0.0000000
 NMagM=    0.0000000   0.0000000   0.0000000   0.0000000   0.0000000   2.7928460   2.7928460   2.7928460   2.7928460   2.7928460
 AtZNuc=   6.0000000   6.0000000   6.0000000   6.0000000   8.0000000   1.0000000   1.0000000   1.0000000   1.0000000   1.0000000

  Atom        11          12          13          14          15
 IAtWgt=           1           1           1           1           1
 AtmWgt=   1.0078250   1.0078250   1.0078250   1.0078250   1.0078250
 NucSpn=           1           1           1           1           1
 AtZEff=   0.0000000   0.0000000   0.0000000   0.0000000   0.0000000
 NQMom=    0.0000000   0.0000000   0.0000000   0.0000000   0.0000000
 NMagM=    2.7928460   2.7928460   2.7928460   2.7928460   2.7928460
 AtZNuc=   1.0000000   1.0000000   1.0000000   1.0000000   1.0000000
 Leave Link  101 at Sun Dec  5 16:43:33 2021, MaxMem=  1342177280 cpu:         4.5
 (Enter /opt/g09/l103.exe)

 GradGradGradGradGradGradGradGradGradGradGradGradGradGradGradGradGradGrad
 Berny optimization.
 Initialization pass.
                           ----------------------------
                           !    Initial Parameters    !
                           ! (Angstroms and Degrees)  !
 --------------------------                            --------------------------
 ! Name  Definition              Value          Derivative Info.                !
 --------------------------------------------------------------------------------
 ! R1    R(1,2)                  1.5358         estimate D2E/DX2                !
 ! R2    R(1,6)                  1.0967         estimate D2E/DX2                !
 ! R3    R(1,7)                  1.0937         estimate D2E/DX2                !
 ! R4    R(1,8)                  1.095          estimate D2E/DX2                !
 ! R5    R(2,3)                  1.5358         estimate D2E/DX2                !
 ! R6    R(2,4)                  1.5305         estimate D2E/DX2                !
 ! R7    R(2,5)                  1.4334         estimate D2E/DX2                !
 ! R8    R(3,9)                  1.095          estimate D2E/DX2                !
 ! R9    R(3,10)                 1.0937         estimate D2E/DX2                !
 ! R10   R(3,11)                 1.0967         estimate D2E/DX2                !
 ! R11   R(4,12)                 1.0937         estimate D2E/DX2                !
 ! R12   R(4,13)                 1.0937         estimate D2E/DX2                !
 ! R13   R(4,14)                 1.0937         estimate D2E/DX2                !
 ! R14   R(5,15)                 0.9632         estimate D2E/DX2                !
 ! A1    A(2,1,6)              110.7398         estimate D2E/DX2                !
 ! A2    A(2,1,7)              110.2598         estimate D2E/DX2                !
 ! A3    A(2,1,8)              111.4777         estimate D2E/DX2                !
 ! A4    A(6,1,7)              108.146          estimate D2E/DX2                !
 ! A5    A(6,1,8)              107.5645         estimate D2E/DX2                !
 ! A6    A(7,1,8)              108.5392         estimate D2E/DX2                !
 ! A7    A(1,2,3)              110.813          estimate D2E/DX2                !
 ! A8    A(1,2,4)              110.7895         estimate D2E/DX2                !
 ! A9    A(1,2,5)              109.6872         estimate D2E/DX2                !
 ! A10   A(3,2,4)              110.7923         estimate D2E/DX2                !
 ! A11   A(3,2,5)              109.6864         estimate D2E/DX2                !
 ! A12   A(4,2,5)              104.9074         estimate D2E/DX2                !
 ! A13   A(2,3,9)              111.4782         estimate D2E/DX2                !
 ! A14   A(2,3,10)             110.2635         estimate D2E/DX2                !
 ! A15   A(2,3,11)             110.7381         estimate D2E/DX2                !
 ! A16   A(9,3,10)             108.5387         estimate D2E/DX2                !
 ! A17   A(9,3,11)             107.5631         estimate D2E/DX2                !
 ! A18   A(10,3,11)            108.1452         estimate D2E/DX2                !
 ! A19   A(2,4,12)             110.2599         estimate D2E/DX2                !
 ! A20   A(2,4,13)             110.2601         estimate D2E/DX2                !
 ! A21   A(2,4,14)             110.9249         estimate D2E/DX2                !
 ! A22   A(12,4,13)            108.1017         estimate D2E/DX2                !
 ! A23   A(12,4,14)            108.6108         estimate D2E/DX2                !
 ! A24   A(13,4,14)            108.6097         estimate D2E/DX2                !
 ! A25   A(2,5,15)             107.6775         estimate D2E/DX2                !
 ! D1    D(6,1,2,3)             58.1169         estimate D2E/DX2                !
 ! D2    D(6,1,2,4)           -178.4799         estimate D2E/DX2                !
 ! D3    D(6,1,2,5)            -63.133          estimate D2E/DX2                !
 ! D4    D(7,1,2,3)            177.7703         estimate D2E/DX2                !
 ! D5    D(7,1,2,4)            -58.8266         estimate D2E/DX2                !
 ! D6    D(7,1,2,5)             56.5204         estimate D2E/DX2                !
 ! D7    D(8,1,2,3)            -61.6029         estimate D2E/DX2                !
 ! D8    D(8,1,2,4)             61.8002         estimate D2E/DX2                !
 ! D9    D(8,1,2,5)            177.1472         estimate D2E/DX2                !
 ! D10   D(1,2,3,9)             61.5951         estimate D2E/DX2                !
 ! D11   D(1,2,3,10)          -177.7758         estimate D2E/DX2                !
 ! D12   D(1,2,3,11)           -58.1222         estimate D2E/DX2                !
 ! D13   D(4,2,3,9)            -61.8064         estimate D2E/DX2                !
 ! D14   D(4,2,3,10)            58.8226         estimate D2E/DX2                !
 ! D15   D(4,2,3,11)           178.4763         estimate D2E/DX2                !
 ! D16   D(5,2,3,9)           -177.1545         estimate D2E/DX2                !
 ! D17   D(5,2,3,10)           -56.5255         estimate D2E/DX2                !
 ! D18   D(5,2,3,11)            63.1282         estimate D2E/DX2                !
 ! D19   D(1,2,4,12)            58.6434         estimate D2E/DX2                !
 ! D20   D(1,2,4,13)           177.937          estimate D2E/DX2                !
 ! D21   D(1,2,4,14)           -61.7104         estimate D2E/DX2                !
 ! D22   D(3,2,4,12)          -177.9415         estimate D2E/DX2                !
 ! D23   D(3,2,4,13)           -58.6479         estimate D2E/DX2                !
 ! D24   D(3,2,4,14)            61.7047         estimate D2E/DX2                !
 ! D25   D(5,2,4,12)           -59.6488         estimate D2E/DX2                !
 ! D26   D(5,2,4,13)            59.6447         estimate D2E/DX2                !
 ! D27   D(5,2,4,14)           179.9974         estimate D2E/DX2                !
 ! D28   D(1,2,5,15)            60.9627         estimate D2E/DX2                !
 ! D29   D(3,2,5,15)           -60.9631         estimate D2E/DX2                !
 ! D30   D(4,2,5,15)           179.9984         estimate D2E/DX2                !
 --------------------------------------------------------------------------------
 Trust Radius=3.00D-01 FncErr=1.00D-07 GrdErr=1.00D-06
 Number of steps in this run=     79 maximum allowed number of steps=    100.
 GradGradGradGradGradGradGradGradGradGradGradGradGradGradGradGradGradGrad

 Leave Link  103 at Sun Dec  5 16:43:33 2021, MaxMem=  1342177280 cpu:         0.1
 (Enter /opt/g09/l202.exe)
                          Input orientation:                          
 ---------------------------------------------------------------------
 Center     Atomic      Atomic             Coordinates (Angstroms)
 Number     Number       Type             X           Y           Z
 ---------------------------------------------------------------------
      1          6           0       -0.008560    1.542700    0.001530
      2          6           0        0.005070    0.007030    0.018560
      3          6           0        0.761380   -0.518390    1.247660
      4          6           0       -1.420130   -0.549330   -0.021160
      5          8           0        0.625900   -0.483640   -1.176570
      6          1           0        1.013610    1.940210    0.002810
      7          1           0       -0.514600    1.907020   -0.897060
      8          1           0       -0.522150    1.948830    0.879180
      9          1           0        0.281310   -0.201660    2.179440
     10          1           0        0.799660   -1.611320    1.230230
     11          1           0        1.790970   -0.140730    1.260830
     12          1           0       -1.938550   -0.199110   -0.918280
     13          1           0       -1.399380   -1.642590   -0.045640
     14          1           0       -1.988510   -0.230600    0.857270
     15          1           0        1.531110   -0.154880   -1.192100
 ---------------------------------------------------------------------
                    Distance matrix (angstroms):
                    1          2          3          4          5
     1  C    0.000000
     2  C    1.535825   0.000000
     3  C    2.528584   1.535825   0.000000
     4  C    2.523813   1.530460   2.523856   0.000000
     5  O    2.428274   1.433361   2.428261   2.350644   0.000000
     6  H    1.096744   2.180501   2.767307   3.481591   2.723289
     7  H    1.093741   2.172183   3.480023   2.760587   2.663479
     8  H    1.094982   2.188428   2.805424   2.803174   3.385415
     9  H    2.805371   2.188438   1.094988   2.803286   3.385418
    10  H    3.480053   2.172228   1.093739   2.760664   2.663558
    11  H    2.767324   2.180483   1.096748   3.481611   2.723214
    12  H    2.757683   2.167446   3.476041   1.093726   2.593082
    13  H    3.476015   2.167452   2.757777   1.093731   2.593054
    14  H    2.792326   2.175836   2.792333   1.093748   3.321999
    15  H    2.584011   1.954664   2.583999   3.199454   0.963187
                    6          7          8          9         10
     6  H    0.000000
     7  H    1.773779   0.000000
     8  H    1.768236   1.776748   0.000000
     9  H    3.140317   3.813772   2.638339   0.000000
    10  H    3.763735   4.316406   3.813802   1.776746   0.000000
    11  H    2.552884   3.763698   3.140452   1.768228   1.773772
    12  H    3.760365   2.542414   3.138582   3.810991   3.756092
    13  H    4.319875   3.755993   3.810921   3.138786   2.542558
    14  H    3.802005   3.133609   2.626901   2.626986   3.133589
    15  H    2.466783   2.919488   3.596064   3.596035   2.919575
                   11         12         13         14         15
    11  H    0.000000
    12  H    4.319867   0.000000
    13  H    3.760423   1.770830   0.000000
    14  H    3.802027   1.776532   1.776524   0.000000
    15  H    2.466697   3.480729   3.480722   4.073497   0.000000
 Stoichiometry    C4H10O
 Framework group  C1[X(C4H10O)]
 Deg. of freedom    39
 Full point group                 C1      NOp   1
 Largest Abelian subgroup         C1      NOp   1
 Largest concise Abelian subgroup C1      NOp   1
                         Standard orientation:                         
 ---------------------------------------------------------------------
 Center     Atomic      Atomic             Coordinates (Angstroms)
 Number     Number       Type             X           Y           Z
 ---------------------------------------------------------------------
      1          6           0       -0.688935    1.265119   -0.509196
      2          6           0        0.004879   -0.000014    0.016941
      3          6           0       -0.691914   -1.263464   -0.509302
      4          6           0        1.488671   -0.001704   -0.358113
      5          8           0       -0.013185   -0.000064    1.450188
      6          1           0       -1.745928    1.278493   -0.216905
      7          1           0       -0.210412    2.158429   -0.097756
      8          1           0       -0.647568    1.320023   -1.602018
      9          1           0       -0.650801   -1.318313   -1.602143
     10          1           0       -0.215480   -2.157974   -0.098050
     11          1           0       -1.748913   -1.274389   -0.216917
     12          1           0        1.983932    0.883139    0.051777
     13          1           0        1.981913   -0.887690    0.051750
     14          1           0        1.617028   -0.001844   -1.444303
     15          1           0       -0.934503    0.001009    1.731080
 ---------------------------------------------------------------------
 Rotational constants (GHZ):      4.6947512      4.6693841      4.4790904
 Leave Link  202 at Sun Dec  5 16:43:33 2021, MaxMem=  1342177280 cpu:         0.8
 (Enter /opt/g09/l301.exe)
 Standard basis: 6-31G(d,p) (6D, 7F)
 Ernie: Thresh=  0.10000D-02 Tol=  0.10000D-05 Strict=F.
 There are   125 symmetry adapted cartesian basis functions of A   symmetry.
 There are   125 symmetry adapted basis functions of A   symmetry.
   125 basis functions,   210 primitive gaussians,   125 cartesian basis functions
    21 alpha electrons       21 beta electrons
       nuclear repulsion energy       199.0272853555 Hartrees.
 IExCor=  402 DFT=T Ex+Corr=B3LYP ExCW=0 ScaHFX=  0.200000
 ScaDFX=  0.800000  0.720000  1.000000  0.810000 ScalE2=  1.000000  1.000000
 IRadAn=      0 IRanWt=     -1 IRanGd=            0 ICorTp=0 IEmpDi=131
 NAtoms=   15 NActive=   15 NUniq=   15 SFac= 1.00D+00 NAtFMM=   60 NAOKFM=F Big=F
 Integral buffers will be    131072 words long.
 Raffenetti 2 integral format.
 Two-electron integral symmetry is turned on.
 R6Disp:  Grimme-D3 Dispersion energy=       -0.0105296592 Hartrees.
 Nuclear repulsion after empirical dispersion term =      199.0167556964 Hartrees.
 Leave Link  301 at Sun Dec  5 16:43:33 2021, MaxMem=  1342177280 cpu:         0.7
 (Enter /opt/g09/l302.exe)
 NPDir=0 NMtPBC=     1 NCelOv=     1 NCel=       1 NClECP=     1 NCelD=      1
         NCelK=      1 NCelE2=     1 NClLst=     1 CellRange=     0.0.
 One-electron integrals computed using PRISM.
 NBasis=   125 RedAO= T EigKep=  3.40D-03  NBF=   125
 NBsUse=   125 1.00D-06 EigRej= -1.00D+00 NBFU=   125
 Precomputing XC quadrature grid using
 IXCGrd= 4 IRadAn=           0 IRanWt=          -1 IRanGd=           0 AccXCQ= 0.00D+00.
 Generated NRdTot=       0 NPtTot=           0 NUsed=           0 NTot=          32
 NSgBfM=   125   125   125   125   125 MxSgAt=    15 MxSgA2=    15.
 Leave Link  302 at Sun Dec  5 16:43:33 2021, MaxMem=  1342177280 cpu:         4.4
 (Enter /opt/g09/l303.exe)
 DipDrv:  MaxL=1.
 Leave Link  303 at Sun Dec  5 16:43:33 2021, MaxMem=  1342177280 cpu:         1.3
 (Enter /opt/g09/l401.exe)
 ExpMin= 1.61D-01 ExpMax= 5.48D+03 ExpMxC= 8.25D+02 IAcc=1 IRadAn=         1 AccDes= 0.00D+00
 Harris functional with IExCor=  402 and IRadAn=       1 diagonalized for initial guess.
 HarFok:  IExCor=  402 AccDes= 0.00D+00 IRadAn=         1 IDoV= 1 UseB2=F ITyADJ=14
 ICtDFT=  3500011 ScaDFX=  1.000000  1.000000  1.000000  1.000000
 FoFCou: FMM=F IPFlag=           0 FMFlag=      100000 FMFlg1=           0
         NFxFlg=           0 DoJE=T BraDBF=F KetDBF=T FulRan=T
         wScrn=  0.000000 ICntrl=     500 IOpCl=  0 I1Cent=   200000004 NGrid=           0
         NMat0=    1 NMatS0=      1 NMatT0=    0 NMatD0=    1 NMtDS0=    0 NMtDT0=    0
 Petite list used in FoFCou.
 Harris En= -233.773780741156    
 JPrj=0 DoOrth=F DoCkMO=F.
 Leave Link  401 at Sun Dec  5 16:43:34 2021, MaxMem=  1342177280 cpu:         4.7
 (Enter /opt/g09/l502.exe)
 Closed shell SCF:
 Using DIIS extrapolation, IDIIS=  1040.
 Integral symmetry usage will be decided dynamically.
 Keep R1 ints in memory in canonical form, NReq=32081255.
 IVT=       69380 IEndB=       69380 NGot=  1342177280 MDV=  1311096151
 LenX=  1311096151 LenY=  1311080085
 Requested convergence on RMS density matrix=1.00D-08 within 128 cycles.
 Requested convergence on MAX density matrix=1.00D-06.
 Requested convergence on             energy=1.00D-06.
 No special actions if energy rises.
 FoFCou: FMM=F IPFlag=           0 FMFlag=           0 FMFlg1=           0
         NFxFlg=           0 DoJE=F BraDBF=F KetDBF=F FulRan=T
         wScrn=  0.000000 ICntrl=     600 IOpCl=  0 I1Cent=           0 NGrid=           0
         NMat0=    1 NMatS0=   7875 NMatT0=    0 NMatD0=    1 NMtDS0=    0 NMtDT0=    0
 Symmetry not used in FoFCou.
 Integral accuracy reduced to 1.0D-05 until final iterations.

 Cycle   1  Pass 0  IDiag  1:
 E= -233.464443808479    
 DIIS: error= 3.39D-02 at cycle   1 NSaved=   1.
 NSaved= 1 IEnMin= 1 EnMin= -233.464443808479     IErMin= 1 ErrMin= 3.39D-02
 ErrMax= 3.39D-02  0.00D+00 EMaxC= 1.00D-01 BMatC= 2.35D-01 BMatP= 2.35D-01
 IDIUse=3 WtCom= 6.61D-01 WtEn= 3.39D-01
 Coeff-Com:  0.100D+01
 Coeff-En:   0.100D+01
 Coeff:      0.100D+01
 Gap=     0.237 Goal=   None    Shift=    0.000
 GapD=    0.237 DampG=1.000 DampE=0.500 DampFc=0.5000 IDamp=-1.
 Damping current iteration by 5.00D-01
 RMSDP=8.20D-03 MaxDP=1.38D-01              OVMax= 1.85D-01

 Cycle   2  Pass 0  IDiag  1:
 E= -233.568388201034     Delta-E=       -0.103944392555 Rises=F Damp=T
 DIIS: error= 1.06D-02 at cycle   2 NSaved=   2.
 NSaved= 2 IEnMin= 2 EnMin= -233.568388201034     IErMin= 2 ErrMin= 1.06D-02
 ErrMax= 1.06D-02  0.00D+00 EMaxC= 1.00D-01 BMatC= 9.05D-03 BMatP= 2.35D-01
 IDIUse=3 WtCom= 8.94D-01 WtEn= 1.06D-01
 Coeff-Com:  0.908D-01 0.909D+00
 Coeff-En:   0.141D+00 0.859D+00
 Coeff:      0.961D-01 0.904D+00
 Gap=     0.333 Goal=   None    Shift=    0.000
 RMSDP=1.25D-03 MaxDP=1.77D-02 DE=-1.04D-01 OVMax= 1.03D-01

 Cycle   3  Pass 0  IDiag  1:
 E= -233.698024704947     Delta-E=       -0.129636503913 Rises=F Damp=F
 DIIS: error= 4.00D-03 at cycle   3 NSaved=   3.
 NSaved= 3 IEnMin= 3 EnMin= -233.698024704947     IErMin= 3 ErrMin= 4.00D-03
 ErrMax= 4.00D-03  0.00D+00 EMaxC= 1.00D-01 BMatC= 2.11D-03 BMatP= 9.05D-03
 IDIUse=3 WtCom= 9.60D-01 WtEn= 4.00D-02
 Coeff-Com:  0.186D-01 0.283D+00 0.698D+00
 Coeff-En:   0.000D+00 0.000D+00 0.100D+01
 Coeff:      0.178D-01 0.272D+00 0.710D+00
 Gap=     0.322 Goal=   None    Shift=    0.000
 RMSDP=5.27D-04 MaxDP=1.40D-02 DE=-1.30D-01 OVMax= 1.49D-02

 Cycle   4  Pass 0  IDiag  1:
 E= -233.698802112480     Delta-E=       -0.000777407533 Rises=F Damp=F
 DIIS: error= 2.50D-03 at cycle   4 NSaved=   4.
 NSaved= 4 IEnMin= 4 EnMin= -233.698802112480     IErMin= 4 ErrMin= 2.50D-03
 ErrMax= 2.50D-03  0.00D+00 EMaxC= 1.00D-01 BMatC= 1.14D-03 BMatP= 2.11D-03
 IDIUse=3 WtCom= 9.75D-01 WtEn= 2.50D-02
 Coeff-Com:  0.399D-03 0.290D-01 0.423D+00 0.547D+00
 Coeff-En:   0.000D+00 0.000D+00 0.365D+00 0.635D+00
 Coeff:      0.389D-03 0.283D-01 0.422D+00 0.550D+00
 Gap=     0.327 Goal=   None    Shift=    0.000
 RMSDP=2.35D-04 MaxDP=6.44D-03 DE=-7.77D-04 OVMax= 6.82D-03

 Cycle   5  Pass 0  IDiag  1:
 E= -233.699685242343     Delta-E=       -0.000883129863 Rises=F Damp=F
 DIIS: error= 2.89D-04 at cycle   5 NSaved=   5.
 NSaved= 5 IEnMin= 5 EnMin= -233.699685242343     IErMin= 5 ErrMin= 2.89D-04
 ErrMax= 2.89D-04  0.00D+00 EMaxC= 1.00D-01 BMatC= 1.28D-05 BMatP= 1.14D-03
 IDIUse=3 WtCom= 9.97D-01 WtEn= 2.89D-03
 Coeff-Com: -0.694D-04 0.204D-02 0.137D+00 0.207D+00 0.653D+00
 Coeff-En:   0.000D+00 0.000D+00 0.000D+00 0.000D+00 0.100D+01
 Coeff:     -0.692D-04 0.203D-02 0.137D+00 0.207D+00 0.654D+00
 Gap=     0.327 Goal=   None    Shift=    0.000
 RMSDP=3.76D-05 MaxDP=9.94D-04 DE=-8.83D-04 OVMax= 8.21D-04

 Cycle   6  Pass 0  IDiag  1:
 E= -233.699694525102     Delta-E=       -0.000009282759 Rises=F Damp=F
 DIIS: error= 9.72D-05 at cycle   6 NSaved=   6.
 NSaved= 6 IEnMin= 6 EnMin= -233.699694525102     IErMin= 6 ErrMin= 9.72D-05
 ErrMax= 9.72D-05  0.00D+00 EMaxC= 1.00D-01 BMatC= 2.36D-06 BMatP= 1.28D-05
 IDIUse=1 WtCom= 1.00D+00 WtEn= 0.00D+00
 Coeff-Com:  0.847D-04-0.125D-02 0.438D-01 0.717D-01 0.354D+00 0.532D+00
 Coeff:      0.847D-04-0.125D-02 0.438D-01 0.717D-01 0.354D+00 0.532D+00
 Gap=     0.327 Goal=   None    Shift=    0.000
 RMSDP=1.11D-05 MaxDP=3.71D-04 DE=-9.28D-06 OVMax= 2.92D-04

 Cycle   7  Pass 0  IDiag  1:
 E= -233.699696633320     Delta-E=       -0.000002108218 Rises=F Damp=F
 DIIS: error= 7.17D-06 at cycle   7 NSaved=   7.
 NSaved= 7 IEnMin= 7 EnMin= -233.699696633320     IErMin= 7 ErrMin= 7.17D-06
 ErrMax= 7.17D-06  0.00D+00 EMaxC= 1.00D-01 BMatC= 8.14D-09 BMatP= 2.36D-06
 IDIUse=1 WtCom= 1.00D+00 WtEn= 0.00D+00
 Coeff-Com:  0.653D-04-0.280D-03 0.176D-02 0.285D-02 0.229D-01 0.736D-01
 Coeff-Com:  0.899D+00
 Coeff:      0.653D-04-0.280D-03 0.176D-02 0.285D-02 0.229D-01 0.736D-01
 Coeff:      0.899D+00
 Gap=     0.327 Goal=   None    Shift=    0.000
 RMSDP=1.24D-06 MaxDP=1.93D-05 DE=-2.11D-06 OVMax= 2.64D-05

 Initial convergence to 1.0D-05 achieved.  Increase integral accuracy.
 Cycle   8  Pass 1  IDiag  1:
 E= -233.699675992120     Delta-E=        0.000020641200 Rises=F Damp=F
 DIIS: error= 1.30D-05 at cycle   1 NSaved=   1.
 NSaved= 1 IEnMin= 1 EnMin= -233.699675992120     IErMin= 1 ErrMin= 1.30D-05
 ErrMax= 1.30D-05  0.00D+00 EMaxC= 1.00D-01 BMatC= 2.44D-08 BMatP= 2.44D-08
 IDIUse=1 WtCom= 1.00D+00 WtEn= 0.00D+00
 Coeff-Com:  0.100D+01
 Coeff:      0.100D+01
 Gap=     0.327 Goal=   None    Shift=    0.000
 RMSDP=1.24D-06 MaxDP=1.93D-05 DE= 2.06D-05 OVMax= 6.06D-05

 Cycle   9  Pass 1  IDiag  1:
 E= -233.699676021224     Delta-E=       -0.000000029104 Rises=F Damp=F
 DIIS: error= 2.87D-06 at cycle   2 NSaved=   2.
 NSaved= 2 IEnMin= 2 EnMin= -233.699676021224     IErMin= 2 ErrMin= 2.87D-06
 ErrMax= 2.87D-06  0.00D+00 EMaxC= 1.00D-01 BMatC= 1.45D-09 BMatP= 2.44D-08
 IDIUse=1 WtCom= 1.00D+00 WtEn= 0.00D+00
 Coeff-Com:  0.746D-01 0.925D+00
 Coeff:      0.746D-01 0.925D+00
 Gap=     0.327 Goal=   None    Shift=    0.000
 RMSDP=6.52D-07 MaxDP=9.09D-06 DE=-2.91D-08 OVMax= 1.42D-05

 Cycle  10  Pass 1  IDiag  1:
 E= -233.699676022049     Delta-E=       -0.000000000825 Rises=F Damp=F
 DIIS: error= 1.88D-06 at cycle   3 NSaved=   3.
 NSaved= 3 IEnMin= 3 EnMin= -233.699676022049     IErMin= 3 ErrMin= 1.88D-06
 ErrMax= 1.88D-06  0.00D+00 EMaxC= 1.00D-01 BMatC= 7.45D-10 BMatP= 1.45D-09
 IDIUse=1 WtCom= 1.00D+00 WtEn= 0.00D+00
 Coeff-Com: -0.137D-01 0.414D+00 0.600D+00
 Coeff:     -0.137D-01 0.414D+00 0.600D+00
 Gap=     0.327 Goal=   None    Shift=    0.000
 RMSDP=2.73D-07 MaxDP=5.25D-06 DE=-8.25D-10 OVMax= 5.60D-06

 Cycle  11  Pass 1  IDiag  1:
 E= -233.699676022759     Delta-E=       -0.000000000710 Rises=F Damp=F
 DIIS: error= 4.25D-07 at cycle   4 NSaved=   4.
 NSaved= 4 IEnMin= 4 EnMin= -233.699676022759     IErMin= 4 ErrMin= 4.25D-07
 ErrMax= 4.25D-07  0.00D+00 EMaxC= 1.00D-01 BMatC= 4.64D-11 BMatP= 7.45D-10
 IDIUse=1 WtCom= 1.00D+00 WtEn= 0.00D+00
 Coeff-Com: -0.101D-01 0.182D+00 0.307D+00 0.521D+00
 Coeff:     -0.101D-01 0.182D+00 0.307D+00 0.521D+00
 Gap=     0.327 Goal=   None    Shift=    0.000
 RMSDP=5.17D-08 MaxDP=1.18D-06 DE=-7.10D-10 OVMax= 1.36D-06

 Cycle  12  Pass 1  IDiag  1:
 E= -233.699676022798     Delta-E=       -0.000000000039 Rises=F Damp=F
 DIIS: error= 8.98D-08 at cycle   5 NSaved=   5.
 NSaved= 5 IEnMin= 5 EnMin= -233.699676022798     IErMin= 5 ErrMin= 8.98D-08
 ErrMax= 8.98D-08  0.00D+00 EMaxC= 1.00D-01 BMatC= 1.03D-12 BMatP= 4.64D-11
 IDIUse=1 WtCom= 1.00D+00 WtEn= 0.00D+00
 Coeff-Com: -0.260D-02 0.357D-01 0.648D-01 0.168D+00 0.734D+00
 Coeff:     -0.260D-02 0.357D-01 0.648D-01 0.168D+00 0.734D+00
 Gap=     0.327 Goal=   None    Shift=    0.000
 RMSDP=1.05D-08 MaxDP=3.27D-07 DE=-3.88D-11 OVMax= 2.86D-07

 Cycle  13  Pass 1  IDiag  1:
 E= -233.699676022795     Delta-E=        0.000000000003 Rises=F Damp=F
 DIIS: error= 5.05D-08 at cycle   6 NSaved=   6.
 NSaved= 6 IEnMin= 5 EnMin= -233.699676022798     IErMin= 6 ErrMin= 5.05D-08
 ErrMax= 5.05D-08  0.00D+00 EMaxC= 1.00D-01 BMatC= 4.40D-13 BMatP= 1.03D-12
 IDIUse=1 WtCom= 1.00D+00 WtEn= 0.00D+00
 Coeff-Com: -0.363D-03 0.184D-02 0.439D-02 0.371D-01 0.429D+00 0.528D+00
 Coeff:     -0.363D-03 0.184D-02 0.439D-02 0.371D-01 0.429D+00 0.528D+00
 Gap=     0.327 Goal=   None    Shift=    0.000
 RMSDP=4.34D-09 MaxDP=1.41D-07 DE= 3.13D-12 OVMax= 1.23D-07

 SCF Done:  E(RB3LYP) =  -233.699676023     A.U. after   13 cycles
            NFock= 13  Conv=0.43D-08     -V/T= 2.0095
 KE= 2.315114580536D+02 PE=-9.415595117816D+02 EE= 2.773316220088D+02
 Leave Link  502 at Sun Dec  5 16:43:36 2021, MaxMem=  1342177280 cpu:        39.5
 (Enter /opt/g09/l601.exe)
 Copying SCF densities to generalized density rwf, IOpCl= 0 IROHF=0.

 **********************************************************************

            Population analysis using the SCF density.

 **********************************************************************

 Orbital symmetries:
       Occupied  (A) (A) (A) (A) (A) (A) (A) (A) (A) (A) (A) (A)
                 (A) (A) (A) (A) (A) (A) (A) (A) (A)
       Virtual   (A) (A) (A) (A) (A) (A) (A) (A) (A) (A) (A) (A)
                 (A) (A) (A) (A) (A) (A) (A) (A) (A) (A) (A) (A)
                 (A) (A) (A) (A) (A) (A) (A) (A) (A) (A) (A) (A)
                 (A) (A) (A) (A) (A) (A) (A) (A) (A) (A) (A) (A)
                 (A) (A) (A) (A) (A) (A) (A) (A) (A) (A) (A) (A)
                 (A) (A) (A) (A) (A) (A) (A) (A) (A) (A) (A) (A)
                 (A) (A) (A) (A) (A) (A) (A) (A) (A) (A) (A) (A)
                 (A) (A) (A) (A) (A) (A) (A) (A) (A) (A) (A) (A)
                 (A) (A) (A) (A) (A) (A) (A) (A)
 The electronic state is 1-A.
 Alpha  occ. eigenvalues --  -19.13255 -10.23810 -10.17301 -10.17300 -10.16795
 Alpha  occ. eigenvalues --   -1.00977  -0.78202  -0.68745  -0.68633  -0.56360
 Alpha  occ. eigenvalues --   -0.48298  -0.44584  -0.44308  -0.40693  -0.39341
 Alpha  occ. eigenvalues --   -0.37558  -0.36314  -0.34859  -0.34306  -0.31128
 Alpha  occ. eigenvalues --   -0.25984
 Alpha virt. eigenvalues --    0.06736   0.11471   0.13058   0.15359   0.16050
 Alpha virt. eigenvalues --    0.16163   0.16818   0.19566   0.20116   0.21696
 Alpha virt. eigenvalues --    0.22525   0.24421   0.25687   0.25849   0.50264
 Alpha virt. eigenvalues --    0.50346   0.55163   0.56505   0.57218   0.60680
 Alpha virt. eigenvalues --    0.63733   0.66742   0.68131   0.72943   0.73000
 Alpha virt. eigenvalues --    0.81363   0.83144   0.85988   0.86812   0.87672
 Alpha virt. eigenvalues --    0.88003   0.89002   0.91612   0.91829   0.95255
 Alpha virt. eigenvalues --    0.95670   0.96476   1.02173   1.04728   1.13486
 Alpha virt. eigenvalues --    1.29207   1.31434   1.38053   1.40291   1.50496
 Alpha virt. eigenvalues --    1.55521   1.55529   1.56685   1.70687   1.71391
 Alpha virt. eigenvalues --    1.83551   1.83916   1.85782   1.88359   1.90285
 Alpha virt. eigenvalues --    1.99187   2.03448   2.03950   2.04813   2.05321
 Alpha virt. eigenvalues --    2.07550   2.09519   2.10174   2.12706   2.13085
 Alpha virt. eigenvalues --    2.14856   2.19499   2.20397   2.28158   2.31214
 Alpha virt. eigenvalues --    2.34083   2.39673   2.43752   2.50995   2.59511
 Alpha virt. eigenvalues --    2.62098   2.63476   2.67946   2.70292   2.72785
 Alpha virt. eigenvalues --    2.73964   2.81060   2.81624   2.86524   2.88414
 Alpha virt. eigenvalues --    2.95032   2.96126   2.98652   3.07885   3.16429
 Alpha virt. eigenvalues --    3.22733   3.23564   3.41541   3.42644   3.42729
 Alpha virt. eigenvalues --    3.43251   3.45556   3.51147   3.53709   3.94820
 Alpha virt. eigenvalues --    4.34832   4.53264   4.55306   4.69652
          Condensed to atoms (all electrons):
               1          2          3          4          5          6
     1  C    5.035598   0.377287  -0.073534  -0.063925  -0.051598   0.367356
     2  C    0.377287   4.617530   0.377288   0.393605   0.234913  -0.026863
     3  C   -0.073534   0.377288   5.035589  -0.063920  -0.051599  -0.007170
     4  C   -0.063925   0.393605  -0.063920   4.976469  -0.063277   0.005684
     5  O   -0.051598   0.234913  -0.051599  -0.063277   8.188086  -0.002206
     6  H    0.367356  -0.026863  -0.007170   0.005684  -0.002206   0.629870
     7  H    0.373777  -0.026381   0.006028  -0.006905   0.001603  -0.031708
     8  H    0.353685  -0.022969   0.000397  -0.002647   0.003810  -0.029991
     9  H    0.000396  -0.022969   0.353683  -0.002646   0.003810   0.000100
    10  H    0.006027  -0.026378   0.373780  -0.006905   0.001602  -0.000075
    11  H   -0.007170  -0.026862   0.367354   0.005684  -0.002207   0.004517
    12  H   -0.007229  -0.024789   0.005849   0.373051   0.000933  -0.000055
    13  H    0.005850  -0.024789  -0.007227   0.373047   0.000933  -0.000228
    14  H   -0.002130  -0.028866  -0.002130   0.369560   0.003472  -0.000042
    15  H   -0.005835  -0.025846  -0.005835   0.008809   0.277088   0.004863
               7          8          9         10         11         12
     1  C    0.373777   0.353685   0.000396   0.006027  -0.007170  -0.007229
     2  C   -0.026381  -0.022969  -0.022969  -0.026378  -0.026862  -0.024789
     3  C    0.006028   0.000397   0.353683   0.373780   0.367354   0.005849
     4  C   -0.006905  -0.002647  -0.002646  -0.006905   0.005684   0.373051
     5  O    0.001603   0.003810   0.003810   0.001602  -0.002207   0.000933
     6  H   -0.031708  -0.029991   0.000100  -0.000075   0.004517  -0.000055
     7  H    0.596176  -0.027669  -0.000132  -0.000218  -0.000075   0.004426
     8  H   -0.027669   0.624843   0.000174  -0.000132   0.000100   0.000276
     9  H   -0.000132   0.000174   0.624850  -0.027671  -0.029991  -0.000129
    10  H   -0.000218  -0.000132  -0.027671   0.596175  -0.031709  -0.000062
    11  H   -0.000075   0.000100  -0.029991  -0.031709   0.629874  -0.000228
    12  H    0.004426   0.000276  -0.000129  -0.000062  -0.000228   0.597584
    13  H   -0.000062  -0.000129   0.000276   0.004425  -0.000055  -0.029407
    14  H    0.000113   0.001486   0.001486   0.000113  -0.000042  -0.029566
    15  H   -0.000563  -0.000136  -0.000136  -0.000563   0.004864  -0.000181
              13         14         15
     1  C    0.005850  -0.002130  -0.005835
     2  C   -0.024789  -0.028866  -0.025846
     3  C   -0.007227  -0.002130  -0.005835
     4  C    0.373047   0.369560   0.008809
     5  O    0.000933   0.003472   0.277088
     6  H   -0.000228  -0.000042   0.004863
     7  H   -0.000062   0.000113  -0.000563
     8  H   -0.000129   0.001486  -0.000136
     9  H    0.000276   0.001486  -0.000136
    10  H    0.004425   0.000113  -0.000563
    11  H   -0.000055  -0.000042   0.004864
    12  H   -0.029407  -0.029566  -0.000181
    13  H    0.597586  -0.029566  -0.000181
    14  H   -0.029566   0.621397  -0.000346
    15  H   -0.000181  -0.000346   0.448917
 Mulliken charges:
               1
     1  C   -0.308555
     2  C    0.256089
     3  C   -0.308553
     4  C   -0.295685
     5  O   -0.545365
     6  H    0.085947
     7  H    0.111590
     8  H    0.098902
     9  H    0.098899
    10  H    0.111590
    11  H    0.085946
    12  H    0.109527
    13  H    0.109526
    14  H    0.095064
    15  H    0.295079
 Sum of Mulliken charges =   0.00000
 Mulliken charges with hydrogens summed into heavy atoms:
               1
     1  C   -0.012116
     2  C    0.256089
     3  C   -0.012118
     4  C    0.018432
     5  O   -0.250286
 Electronic spatial extent (au):  <R**2>=            449.1118
 Charge=              0.0000 electrons
 Dipole moment (field-independent basis, Debye):
    X=             -1.1846    Y=              0.0014    Z=             -0.8831  Tot=              1.4776
 Quadrupole moment (field-independent basis, Debye-Ang):
   XX=            -31.4065   YY=            -33.1149   ZZ=            -33.9773
   XY=             -0.0018   XZ=             -2.7692   YZ=              0.0033
 Traceless Quadrupole moment (field-independent basis, Debye-Ang):
   XX=              1.4264   YY=             -0.2820   ZZ=             -1.1445
   XY=             -0.0018   XZ=             -2.7692   YZ=              0.0033
 Octapole moment (field-independent basis, Debye-Ang**2):
  XXX=             -2.5046  YYY=             -0.0059  ZZZ=              4.4111  XYY=              1.4572
  XXY=              0.0061  XXZ=              6.0045  XZZ=             -5.2134  YZZ=              0.0063
  YYZ=              2.8622  XYZ=             -0.0034
 Hexadecapole moment (field-independent basis, Debye-Ang**3):
 XXXX=           -212.5056 YYYY=           -211.8601 ZZZZ=           -157.6774 XXXY=             -0.0039
 XXXZ=             -4.0969 YYYX=              0.0013 YYYZ=              0.0006 ZZZX=            -11.7999
 ZZZY=              0.0126 XXYY=            -71.4068 XXZZ=            -59.5008 YYZZ=            -64.9690
 XXYZ=              0.0041 YYXZ=             -0.1125 ZZXY=             -0.0064
 N-N= 1.990167556964D+02 E-N=-9.415595144837D+02  KE= 2.315114580536D+02
 No NMR shielding tensors so no spin-rotation constants.
 Leave Link  601 at Sun Dec  5 16:43:36 2021, MaxMem=  1342177280 cpu:         5.4
 (Enter /opt/g09/l701.exe)
 Compute integral first derivatives.
 ... and contract with generalized density number  0.
 R6Disp: Adding Grimme-D3 dispersion energy 1st derivatives to the gradient.
 Leave Link  701 at Sun Dec  5 16:43:36 2021, MaxMem=  1342177280 cpu:         3.9
 (Enter /opt/g09/l702.exe)
 L702 exits ... SP integral derivatives will be done elsewhere.
 Leave Link  702 at Sun Dec  5 16:43:36 2021, MaxMem=  1342177280 cpu:         0.2
 (Enter /opt/g09/l703.exe)
 Compute integral first derivatives, UseDBF=F ICtDFT=           0.
 Integral derivatives from FoFJK, PRISM(SPDF).
 Calling FoFJK, ICntrl=      2127 FMM=F ISym2X=0 I1Cent= 0 IOpClX= 0 NMat=1 NMatS=1 NMatT=0.
 FoFJK:  IHMeth= 1 ICntrl=    2127 DoSepK=F KAlg= 0 I1Cent=   0 FoldK=F
 IRaf=         0 NMat=   1 IRICut=       1 DoRegI=T DoRafI=F ISym2E= 0.
 FoFCou: FMM=F IPFlag=           0 FMFlag=      100000 FMFlg1=         800
         NFxFlg=           0 DoJE=F BraDBF=F KetDBF=F FulRan=T
         wScrn=  0.000000 ICntrl=    2127 IOpCl=  0 I1Cent=           0 NGrid=           0
         NMat0=    1 NMatS0=      1 NMatT0=    0 NMatD0=    1 NMtDS0=    0 NMtDT0=    0
 Symmetry not used in FoFCou.
 Leave Link  703 at Sun Dec  5 16:43:37 2021, MaxMem=  1342177280 cpu:        12.3
 (Enter /opt/g09/l716.exe)
 Dipole        =-4.66063479D-01 5.67891171D-04-3.47433526D-01
 ***** Axes restored to original set *****
 -------------------------------------------------------------------
 Center     Atomic                   Forces (Hartrees/Bohr)
 Number     Number              X              Y              Z
 -------------------------------------------------------------------
      1        6          -0.000192508    0.000436965    0.000281429
      2        6          -0.000975880    0.000508158    0.001446731
      3        6          -0.000024851   -0.000008558    0.000560415
      4        6          -0.000232012   -0.000100699   -0.000014139
      5        8          -0.002758470   -0.002067530   -0.001717186
      6        1           0.000226417   -0.000146996   -0.000073349
      7        1           0.000010532   -0.000322532   -0.000156362
      8        1          -0.000036700   -0.000143970    0.000144051
      9        1          -0.000143585    0.000143498   -0.000034510
     10        1          -0.000106054   -0.000014982   -0.000346095
     11        1           0.000132738    0.000101653   -0.000223587
     12        1           0.000275279    0.000141346   -0.000160624
     13        1           0.000343194   -0.000036398   -0.000051560
     14        1           0.000073176    0.000207875    0.000297322
     15        1           0.003408724    0.001302171    0.000047464
 -------------------------------------------------------------------
 Cartesian Forces:  Max     0.003408724 RMS     0.000856623
 Leave Link  716 at Sun Dec  5 16:43:37 2021, MaxMem=  1342177280 cpu:         0.5
 (Enter /opt/g09/l103.exe)

 GradGradGradGradGradGradGradGradGradGradGradGradGradGradGradGradGradGrad
 Berny optimization.
 FormGI is forming the generalized inverse of G from B-inverse, IUseBI=4.
 Internal  Forces:  Max     0.003654657 RMS     0.000527553
 Search for a local minimum.
 Step number   1 out of a maximum of   79
 All quantities printed in internal units (Hartrees-Bohrs-Radians)
 RMS Force = .52755D-03 SwitMx=.10000D-02 MixMth= 2
 Mixed Optimization -- En-DIIS/RFO-DIIS
 Second derivative matrix not updated -- first step.
 ITU=  0
     Eigenvalues ---    0.00292   0.00292   0.00363   0.01250   0.04318
     Eigenvalues ---    0.05452   0.05452   0.05558   0.05559   0.05566
     Eigenvalues ---    0.05666   0.05878   0.06615   0.16000   0.16000
     Eigenvalues ---    0.16000   0.16000   0.16000   0.16000   0.16000
     Eigenvalues ---    0.16000   0.16000   0.16000   0.16068   0.16522
     Eigenvalues ---    0.28892   0.28892   0.29381   0.34044   0.34045
     Eigenvalues ---    0.34242   0.34243   0.34383   0.34384   0.34384
     Eigenvalues ---    0.34385   0.34386   0.40510   0.54793
 RFO step:  Lambda=-4.62875818D-05 EMin= 2.92052590D-03
 Linear search not attempted -- first point.
 Iteration  1 RMS(Cart)=  0.00205434 RMS(Int)=  0.00000270
 Iteration  2 RMS(Cart)=  0.00000268 RMS(Int)=  0.00000128
 Iteration  3 RMS(Cart)=  0.00000000 RMS(Int)=  0.00000128
 ITry= 1 IFail=0 DXMaxC= 5.95D-03 DCOld= 1.00D+10 DXMaxT= 3.00D-01 DXLimC= 3.00D+00 Rises=F
 Variable       Old X    -DE/DX   Delta X   Delta X   Delta X     New X
                                 (Linear)    (Quad)   (Total)
    R1        2.90229  -0.00018   0.00000  -0.00061  -0.00061   2.90168
    R2        2.07255   0.00016   0.00000   0.00046   0.00046   2.07300
    R3        2.06687   0.00002   0.00000   0.00005   0.00005   2.06692
    R4        2.06922   0.00008   0.00000   0.00024   0.00024   2.06946
    R5        2.90229  -0.00018   0.00000  -0.00062  -0.00062   2.90167
    R6        2.89215  -0.00051   0.00000  -0.00174  -0.00174   2.89041
    R7        2.70866   0.00193   0.00000   0.00477   0.00477   2.71343
    R8        2.06923   0.00008   0.00000   0.00023   0.00023   2.06946
    R9        2.06687   0.00002   0.00000   0.00005   0.00005   2.06691
   R10        2.07255   0.00015   0.00000   0.00045   0.00045   2.07301
   R11        2.06684   0.00005   0.00000   0.00014   0.00014   2.06699
   R12        2.06685   0.00005   0.00000   0.00014   0.00014   2.06699
   R13        2.06688   0.00025   0.00000   0.00074   0.00074   2.06762
   R14        1.82016   0.00365   0.00000   0.00667   0.00667   1.82683
    A1        1.93277  -0.00020   0.00000  -0.00139  -0.00139   1.93138
    A2        1.92440  -0.00042   0.00000  -0.00286  -0.00286   1.92154
    A3        1.94565  -0.00012   0.00000  -0.00038  -0.00038   1.94528
    A4        1.88750   0.00025   0.00000   0.00086   0.00086   1.88836
    A5        1.87736   0.00022   0.00000   0.00178   0.00178   1.87913
    A6        1.89437   0.00031   0.00000   0.00220   0.00220   1.89657
    A7        1.93405  -0.00009   0.00000  -0.00043  -0.00043   1.93362
    A8        1.93364   0.00003   0.00000  -0.00005  -0.00005   1.93359
    A9        1.91440   0.00006   0.00000   0.00063   0.00063   1.91503
   A10        1.93369   0.00003   0.00000  -0.00007  -0.00007   1.93362
   A11        1.91439   0.00006   0.00000   0.00064   0.00064   1.91503
   A12        1.83098  -0.00009   0.00000  -0.00071  -0.00071   1.83027
   A13        1.94566  -0.00012   0.00000  -0.00038  -0.00038   1.94529
   A14        1.92446  -0.00043   0.00000  -0.00290  -0.00290   1.92156
   A15        1.93275  -0.00020   0.00000  -0.00138  -0.00138   1.93136
   A16        1.89436   0.00032   0.00000   0.00221   0.00221   1.89657
   A17        1.87733   0.00022   0.00000   0.00179   0.00179   1.87912
   A18        1.88749   0.00025   0.00000   0.00087   0.00086   1.88835
   A19        1.92440  -0.00038   0.00000  -0.00252  -0.00252   1.92188
   A20        1.92440  -0.00038   0.00000  -0.00252  -0.00252   1.92188
   A21        1.93600  -0.00019   0.00000  -0.00086  -0.00086   1.93514
   A22        1.88673   0.00032   0.00000   0.00141   0.00140   1.88813
   A23        1.89562   0.00033   0.00000   0.00234   0.00234   1.89796
   A24        1.89560   0.00033   0.00000   0.00235   0.00235   1.89795
   A25        1.87933  -0.00023   0.00000  -0.00147  -0.00147   1.87786
    D1        1.01433   0.00007   0.00000   0.00264   0.00264   1.01697
    D2       -3.11506   0.00007   0.00000   0.00221   0.00221  -3.11285
    D3       -1.10188   0.00002   0.00000   0.00170   0.00169  -1.10018
    D4        3.10268  -0.00002   0.00000   0.00097   0.00097   3.10365
    D5       -1.02672  -0.00002   0.00000   0.00054   0.00054  -1.02617
    D6        0.98647  -0.00008   0.00000   0.00003   0.00003   0.98650
    D7       -1.07517   0.00001   0.00000   0.00157   0.00157  -1.07360
    D8        1.07862   0.00001   0.00000   0.00114   0.00114   1.07976
    D9        3.09180  -0.00004   0.00000   0.00063   0.00063   3.09243
   D10        1.07504  -0.00001   0.00000  -0.00147  -0.00147   1.07356
   D11       -3.10277   0.00002   0.00000  -0.00089  -0.00089  -3.10366
   D12       -1.01442  -0.00007   0.00000  -0.00256  -0.00256  -1.01698
   D13       -1.07873  -0.00001   0.00000  -0.00106  -0.00106  -1.07978
   D14        1.02665   0.00002   0.00000  -0.00047  -0.00047   1.02617
   D15        3.11500  -0.00007   0.00000  -0.00214  -0.00214   3.11285
   D16       -3.09193   0.00004   0.00000  -0.00054  -0.00054  -3.09247
   D17       -0.98656   0.00008   0.00000   0.00005   0.00005  -0.98651
   D18        1.10179  -0.00002   0.00000  -0.00162  -0.00162   1.10017
   D19        1.02352   0.00007   0.00000   0.00108   0.00108   1.02460
   D20        3.10559  -0.00001   0.00000  -0.00036  -0.00036   3.10523
   D21       -1.07705   0.00003   0.00000   0.00036   0.00036  -1.07669
   D22       -3.10566   0.00001   0.00000   0.00044   0.00044  -3.10522
   D23       -1.02360  -0.00007   0.00000  -0.00099  -0.00099  -1.02459
   D24        1.07695  -0.00003   0.00000  -0.00027  -0.00027   1.07668
   D25       -1.04107   0.00004   0.00000   0.00076   0.00076  -1.04031
   D26        1.04100  -0.00004   0.00000  -0.00067  -0.00067   1.04032
   D27        3.14155   0.00000   0.00000   0.00005   0.00005  -3.14159
   D28        1.06400  -0.00002   0.00000   0.00014   0.00014   1.06414
   D29       -1.06401   0.00002   0.00000  -0.00015  -0.00015  -1.06415
   D30        3.14156   0.00000   0.00000   0.00001   0.00001   3.14157
         Item               Value     Threshold  Converged?
 Maximum Force            0.003655     0.000450     NO 
 RMS     Force            0.000528     0.000300     NO 
 Maximum Displacement     0.005953     0.001800     NO 
 RMS     Displacement     0.002056     0.001200     NO 
 Predicted change in Energy=-2.314134D-05
 Lowest energy point so far.  Saving SCF results.
 GradGradGradGradGradGradGradGradGradGradGradGradGradGradGradGradGradGrad

 Leave Link  103 at Sun Dec  5 16:43:37 2021, MaxMem=  1342177280 cpu:         1.5
 (Enter /opt/g09/l202.exe)
                          Input orientation:                          
 ---------------------------------------------------------------------
 Center     Atomic      Atomic             Coordinates (Angstroms)
 Number     Number       Type             X           Y           Z
 ---------------------------------------------------------------------
      1          6           0       -0.009355    1.542534    0.002664
      2          6           0        0.004396    0.007184    0.019224
      3          6           0        0.760292   -0.517818    1.248349
      4          6           0       -1.419932   -0.548874   -0.020511
      5          8           0        0.625499   -0.484799   -1.178251
      6          1           0        1.013572    1.938762    0.001723
      7          1           0       -0.516507    1.904141   -0.896424
      8          1           0       -0.522018    1.948038    0.881304
      9          1           0        0.280311   -0.199706    2.179846
     10          1           0        0.796510   -1.610806    1.228739
     11          1           0        1.790510   -0.141100    1.259181
     12          1           0       -1.935865   -0.197865   -0.918848
     13          1           0       -1.396384   -1.642135   -0.045639
     14          1           0       -1.987805   -0.229540    0.858515
     15          1           0        1.533907   -0.154476   -1.193171
 ---------------------------------------------------------------------
                    Distance matrix (angstroms):
                    1          2          3          4          5
     1  C    0.000000
     2  C    1.535501   0.000000
     3  C    2.527674   1.535497   0.000000
     4  C    2.522747   1.529539   2.522766   0.000000
     5  O    2.430572   1.435884   2.430565   2.351225   0.000000
     6  H    1.096986   2.179389   2.766407   3.480053   2.723341
     7  H    1.093765   2.169838   3.477952   2.756934   2.662825
     8  H    1.095109   2.187969   2.803477   2.802515   3.387810
     9  H    2.803467   2.187971   1.095109   2.802555   3.387809
    10  H    3.477963   2.169853   1.093764   2.756980   2.662844
    11  H    2.766400   2.179377   1.096989   3.480062   2.723317
    12  H    2.754925   2.164865   3.473957   1.093803   2.590407
    13  H    3.473946   2.164866   2.754949   1.093803   2.590415
    14  H    2.790517   2.174698   2.790539   1.094139   3.323091
    15  H    2.586797   1.958428   2.586797   3.202475   0.966716
                    6          7          8          9         10
     6  H    0.000000
     7  H    1.774544   0.000000
     8  H    1.769685   1.778278   0.000000
     9  H    3.139257   3.811106   2.634909   0.000000
    10  H    3.761930   4.312213   3.811114   1.778277   0.000000
    11  H    2.551599   3.761910   3.139279   1.769678   1.774542
    12  H    3.756569   2.536437   3.137580   3.809639   3.751587
    13  H    4.316591   3.751546   3.809604   3.137625   2.536494
    14  H    3.800511   3.130036   2.625051   2.625101   3.130075
    15  H    2.465799   2.920643   3.598727   3.598721   2.920668
                   11         12         13         14         15
    11  H    0.000000
    12  H    4.316585   0.000000
    13  H    3.756589   1.771849   0.000000
    14  H    3.800529   1.778404   1.778398   0.000000
    15  H    2.465777   3.480870   3.480886   4.076457   0.000000
 Stoichiometry    C4H10O
 Framework group  C1[X(C4H10O)]
 Deg. of freedom    39
 Full point group                 C1      NOp   1
 RotChk:  IX=0 Diff= 3.10D-03
 Largest Abelian subgroup         C1      NOp   1
 Largest concise Abelian subgroup C1      NOp   1
                         Standard orientation:                         
 ---------------------------------------------------------------------
 Center     Atomic      Atomic             Coordinates (Angstroms)
 Number     Number       Type             X           Y           Z
 ---------------------------------------------------------------------
      1          6           0       -0.690644    1.264206   -0.508810
      2          6           0        0.004950   -0.000008    0.016237
      3          6           0       -0.691966   -1.263467   -0.508862
      4          6           0        1.487077   -0.000755   -0.361641
      5          8           0       -0.009177   -0.000034    1.452051
      6          1           0       -1.746551    1.276719   -0.211686
      7          1           0       -0.209518    2.156208   -0.097505
      8          1           0       -0.652337    1.317832   -1.601935
      9          1           0       -0.653751   -1.317077   -1.601991
     10          1           0       -0.211783   -2.156005   -0.097620
     11          1           0       -1.747882   -1.274880   -0.211718
     12          1           0        1.980424    0.884906    0.048991
     13          1           0        1.979519   -0.886943    0.048937
     14          1           0        1.612306   -0.000792   -1.448590
     15          1           0       -0.933506    0.000449    1.735172
 ---------------------------------------------------------------------
 Rotational constants (GHZ):      4.6921536      4.6666049      4.4833841
 Leave Link  202 at Sun Dec  5 16:43:37 2021, MaxMem=  1342177280 cpu:         0.1
 (Enter /opt/g09/l301.exe)
 Standard basis: 6-31G(d,p) (6D, 7F)
 Ernie: Thresh=  0.10000D-02 Tol=  0.10000D-05 Strict=F.
 There are   125 symmetry adapted cartesian basis functions of A   symmetry.
 There are   125 symmetry adapted basis functions of A   symmetry.
   125 basis functions,   210 primitive gaussians,   125 cartesian basis functions
    21 alpha electrons       21 beta electrons
       nuclear repulsion energy       198.9948634400 Hartrees.
 IExCor=  402 DFT=T Ex+Corr=B3LYP ExCW=0 ScaHFX=  0.200000
 ScaDFX=  0.800000  0.720000  1.000000  0.810000 ScalE2=  1.000000  1.000000
 IRadAn=      0 IRanWt=     -1 IRanGd=            0 ICorTp=0 IEmpDi=131
 NAtoms=   15 NActive=   15 NUniq=   15 SFac= 1.00D+00 NAtFMM=   60 NAOKFM=F Big=F
 Integral buffers will be    131072 words long.
 Raffenetti 2 integral format.
 Two-electron integral symmetry is turned on.
 R6Disp:  Grimme-D3 Dispersion energy=       -0.0105397564 Hartrees.
 Nuclear repulsion after empirical dispersion term =      198.9843236836 Hartrees.
 Leave Link  301 at Sun Dec  5 16:43:37 2021, MaxMem=  1342177280 cpu:         0.7
 (Enter /opt/g09/l302.exe)
 NPDir=0 NMtPBC=     1 NCelOv=     1 NCel=       1 NClECP=     1 NCelD=      1
         NCelK=      1 NCelE2=     1 NClLst=     1 CellRange=     0.0.
 One-electron integrals computed using PRISM.
 NBasis=   125 RedAO= T EigKep=  3.41D-03  NBF=   125
 NBsUse=   125 1.00D-06 EigRej= -1.00D+00 NBFU=   125
 Precomputing XC quadrature grid using
 IXCGrd= 4 IRadAn=           0 IRanWt=          -1 IRanGd=           0 AccXCQ= 0.00D+00.
 Generated NRdTot=       0 NPtTot=           0 NUsed=           0 NTot=          32
 NSgBfM=   125   125   125   125   125 MxSgAt=    15 MxSgA2=    15.
 Leave Link  302 at Sun Dec  5 16:43:37 2021, MaxMem=  1342177280 cpu:         3.3
 (Enter /opt/g09/l303.exe)
 DipDrv:  MaxL=1.
 Leave Link  303 at Sun Dec  5 16:43:37 2021, MaxMem=  1342177280 cpu:         0.4
 (Enter /opt/g09/l401.exe)
 Initial guess from the checkpoint file:  "000055.chk"
 B after Tr=     0.000000    0.000000    0.000000
         Rot=    0.999999    0.000011   -0.001102   -0.000325 Ang=   0.13 deg.
 Guess basis will be translated and rotated to current coordinates.
 JPrj=2 DoOrth=T DoCkMO=T.
 Leave Link  401 at Sun Dec  5 16:43:38 2021, MaxMem=  1342177280 cpu:         1.5
 (Enter /opt/g09/l502.exe)
 Closed shell SCF:
 Using DIIS extrapolation, IDIIS=  1040.
 Integral symmetry usage will be decided dynamically.
 Keep R1 ints in memory in canonical form, NReq=32081255.
 IVT=       69380 IEndB=       69380 NGot=  1342177280 MDV=  1311096151
 LenX=  1311096151 LenY=  1311080085
 Requested convergence on RMS density matrix=1.00D-08 within 128 cycles.
 Requested convergence on MAX density matrix=1.00D-06.
 Requested convergence on             energy=1.00D-06.
 No special actions if energy rises.
 FoFCou: FMM=F IPFlag=           0 FMFlag=           0 FMFlg1=           0
         NFxFlg=           0 DoJE=F BraDBF=F KetDBF=F FulRan=T
         wScrn=  0.000000 ICntrl=     600 IOpCl=  0 I1Cent=           0 NGrid=           0
         NMat0=    1 NMatS0=   7875 NMatT0=    0 NMatD0=    1 NMtDS0=    0 NMtDT0=    0
 Symmetry not used in FoFCou.

 Cycle   1  Pass 1  IDiag  1:
 E= -233.699693101499    
 DIIS: error= 2.78D-04 at cycle   1 NSaved=   1.
 NSaved= 1 IEnMin= 1 EnMin= -233.699693101499     IErMin= 1 ErrMin= 2.78D-04
 ErrMax= 2.78D-04  0.00D+00 EMaxC= 1.00D-01 BMatC= 6.56D-06 BMatP= 6.56D-06
 IDIUse=3 WtCom= 9.97D-01 WtEn= 2.78D-03
 Coeff-Com:  0.100D+01
 Coeff-En:   0.100D+01
 Coeff:      0.100D+01
 Gap=     1.773 Goal=   None    Shift=    0.000
 RMSDP=3.10D-05 MaxDP=9.38D-04              OVMax= 8.23D-04

 Cycle   2  Pass 1  IDiag  1:
 E= -233.699700409707     Delta-E=       -0.000007308208 Rises=F Damp=F
 DIIS: error= 1.04D-04 at cycle   2 NSaved=   2.
 NSaved= 2 IEnMin= 2 EnMin= -233.699700409707     IErMin= 2 ErrMin= 1.04D-04
 ErrMax= 1.04D-04  0.00D+00 EMaxC= 1.00D-01 BMatC= 1.38D-06 BMatP= 6.56D-06
 IDIUse=3 WtCom= 9.99D-01 WtEn= 1.04D-03
 Coeff-Com:  0.222D+00 0.778D+00
 Coeff-En:   0.000D+00 0.100D+01
 Coeff:      0.221D+00 0.779D+00
 Gap=     0.327 Goal=   None    Shift=    0.000
 RMSDP=1.34D-05 MaxDP=4.92D-04 DE=-7.31D-06 OVMax= 4.42D-04

 Cycle   3  Pass 1  IDiag  1:
 E= -233.699700505094     Delta-E=       -0.000000095387 Rises=F Damp=F
 DIIS: error= 9.59D-05 at cycle   3 NSaved=   3.
 NSaved= 3 IEnMin= 3 EnMin= -233.699700505094     IErMin= 3 ErrMin= 9.59D-05
 ErrMax= 9.59D-05  0.00D+00 EMaxC= 1.00D-01 BMatC= 1.24D-06 BMatP= 1.38D-06
 IDIUse=1 WtCom= 1.00D+00 WtEn= 0.00D+00
 Coeff-Com: -0.746D-02 0.488D+00 0.520D+00
 Coeff:     -0.746D-02 0.488D+00 0.520D+00
 Gap=     0.327 Goal=   None    Shift=    0.000
 RMSDP=7.54D-06 MaxDP=2.36D-04 DE=-9.54D-08 OVMax= 2.10D-04

 Cycle   4  Pass 1  IDiag  1:
 E= -233.699701384801     Delta-E=       -0.000000879707 Rises=F Damp=F
 DIIS: error= 1.15D-05 at cycle   4 NSaved=   4.
 NSaved= 4 IEnMin= 4 EnMin= -233.699701384801     IErMin= 4 ErrMin= 1.15D-05
 ErrMax= 1.15D-05  0.00D+00 EMaxC= 1.00D-01 BMatC= 9.22D-09 BMatP= 1.24D-06
 IDIUse=1 WtCom= 1.00D+00 WtEn= 0.00D+00
 Coeff-Com: -0.965D-02 0.126D+00 0.173D+00 0.711D+00
 Coeff:     -0.965D-02 0.126D+00 0.173D+00 0.711D+00
 Gap=     0.327 Goal=   None    Shift=    0.000
 RMSDP=8.96D-07 MaxDP=1.75D-05 DE=-8.80D-07 OVMax= 2.08D-05

 Cycle   5  Pass 1  IDiag  1:
 E= -233.699701391960     Delta-E=       -0.000000007159 Rises=F Damp=F
 DIIS: error= 2.07D-06 at cycle   5 NSaved=   5.
 NSaved= 5 IEnMin= 5 EnMin= -233.699701391960     IErMin= 5 ErrMin= 2.07D-06
 ErrMax= 2.07D-06  0.00D+00 EMaxC= 1.00D-01 BMatC= 8.51D-10 BMatP= 9.22D-09
 IDIUse=1 WtCom= 1.00D+00 WtEn= 0.00D+00
 Coeff-Com: -0.409D-02 0.377D-01 0.590D-01 0.330D+00 0.578D+00
 Coeff:     -0.409D-02 0.377D-01 0.590D-01 0.330D+00 0.578D+00
 Gap=     0.327 Goal=   None    Shift=    0.000
 RMSDP=2.88D-07 MaxDP=6.34D-06 DE=-7.16D-09 OVMax= 6.79D-06

 Cycle   6  Pass 1  IDiag  1:
 E= -233.699701392767     Delta-E=       -0.000000000807 Rises=F Damp=F
 DIIS: error= 5.16D-07 at cycle   6 NSaved=   6.
 NSaved= 6 IEnMin= 6 EnMin= -233.699701392767     IErMin= 6 ErrMin= 5.16D-07
 ErrMax= 5.16D-07  0.00D+00 EMaxC= 1.00D-01 BMatC= 4.25D-11 BMatP= 8.51D-10
 IDIUse=1 WtCom= 1.00D+00 WtEn= 0.00D+00
 Coeff-Com: -0.366D-03-0.503D-03 0.240D-02 0.376D-01 0.206D+00 0.755D+00
 Coeff:     -0.366D-03-0.503D-03 0.240D-02 0.376D-01 0.206D+00 0.755D+00
 Gap=     0.327 Goal=   None    Shift=    0.000
 RMSDP=6.58D-08 MaxDP=1.17D-06 DE=-8.07D-10 OVMax= 1.74D-06

 Cycle   7  Pass 1  IDiag  1:
 E= -233.699701392812     Delta-E=       -0.000000000044 Rises=F Damp=F
 DIIS: error= 1.06D-07 at cycle   7 NSaved=   7.
 NSaved= 7 IEnMin= 7 EnMin= -233.699701392812     IErMin= 7 ErrMin= 1.06D-07
 ErrMax= 1.06D-07  0.00D+00 EMaxC= 1.00D-01 BMatC= 1.70D-12 BMatP= 4.25D-11
 IDIUse=1 WtCom= 1.00D+00 WtEn= 0.00D+00
 Coeff-Com:  0.308D-04-0.169D-02-0.137D-02-0.646D-03 0.480D-01 0.260D+00
 Coeff-Com:  0.696D+00
 Coeff:      0.308D-04-0.169D-02-0.137D-02-0.646D-03 0.480D-01 0.260D+00
 Coeff:      0.696D+00
 Gap=     0.327 Goal=   None    Shift=    0.000
 RMSDP=1.39D-08 MaxDP=2.91D-07 DE=-4.41D-11 OVMax= 3.29D-07

 Cycle   8  Pass 1  IDiag  1:
 E= -233.699701392815     Delta-E=       -0.000000000003 Rises=F Damp=F
 DIIS: error= 2.43D-08 at cycle   8 NSaved=   8.
 NSaved= 8 IEnMin= 8 EnMin= -233.699701392815     IErMin= 8 ErrMin= 2.43D-08
 ErrMax= 2.43D-08  0.00D+00 EMaxC= 1.00D-01 BMatC= 1.34D-13 BMatP= 1.70D-12
 IDIUse=1 WtCom= 1.00D+00 WtEn= 0.00D+00
 Coeff-Com:  0.298D-04-0.706D-03-0.681D-03-0.207D-02 0.110D-01 0.774D-01
 Coeff-Com:  0.292D+00 0.623D+00
 Coeff:      0.298D-04-0.706D-03-0.681D-03-0.207D-02 0.110D-01 0.774D-01
 Coeff:      0.292D+00 0.623D+00
 Gap=     0.327 Goal=   None    Shift=    0.000
 RMSDP=3.06D-09 MaxDP=8.00D-08 DE=-3.35D-12 OVMax= 8.01D-08

 SCF Done:  E(RB3LYP) =  -233.699701393     A.U. after    8 cycles
            NFock=  8  Conv=0.31D-08     -V/T= 2.0095
 KE= 2.315024375603D+02 PE=-9.414911143899D+02 EE= 2.773046517532D+02
 Leave Link  502 at Sun Dec  5 16:43:39 2021, MaxMem=  1342177280 cpu:        32.8
 (Enter /opt/g09/l701.exe)
 Compute integral first derivatives.
 ... and contract with generalized density number  0.
 R6Disp: Adding Grimme-D3 dispersion energy 1st derivatives to the gradient.
 Leave Link  701 at Sun Dec  5 16:43:40 2021, MaxMem=  1342177280 cpu:         3.8
 (Enter /opt/g09/l702.exe)
 L702 exits ... SP integral derivatives will be done elsewhere.
 Leave Link  702 at Sun Dec  5 16:43:40 2021, MaxMem=  1342177280 cpu:         0.3
 (Enter /opt/g09/l703.exe)
 Compute integral first derivatives, UseDBF=F ICtDFT=           0.
 Integral derivatives from FoFJK, PRISM(SPDF).
 Calling FoFJK, ICntrl=      2127 FMM=F ISym2X=0 I1Cent= 0 IOpClX= 0 NMat=1 NMatS=1 NMatT=0.
 FoFJK:  IHMeth= 1 ICntrl=    2127 DoSepK=F KAlg= 0 I1Cent=   0 FoldK=F
 IRaf=         0 NMat=   1 IRICut=       1 DoRegI=T DoRafI=F ISym2E= 0.
 FoFCou: FMM=F IPFlag=           0 FMFlag=      100000 FMFlg1=         800
         NFxFlg=           0 DoJE=F BraDBF=F KetDBF=F FulRan=T
         wScrn=  0.000000 ICntrl=    2127 IOpCl=  0 I1Cent=           0 NGrid=           0
         NMat0=    1 NMatS0=      1 NMatT0=    0 NMatD0=    1 NMtDS0=    0 NMtDT0=    0
 Symmetry not used in FoFCou.
 Leave Link  703 at Sun Dec  5 16:43:40 2021, MaxMem=  1342177280 cpu:        11.2
 (Enter /opt/g09/l716.exe)
 Dipole        =-4.67505306D-01 2.55403962D-04-3.48986297D-01
 ***** Axes restored to original set *****
 -------------------------------------------------------------------
 Center     Atomic                   Forces (Hartrees/Bohr)
 Number     Number              X              Y              Z
 -------------------------------------------------------------------
      1        6           0.000076086    0.000174322   -0.000151881
      2        6          -0.000322143    0.000392439    0.000845652
      3        6           0.000196282   -0.000140244    0.000041260
      4        6          -0.000167468   -0.000142392   -0.000128698
      5        8          -0.000049166   -0.000326948   -0.000510872
      6        1          -0.000015082   -0.000012986   -0.000016677
      7        1           0.000029243   -0.000001892   -0.000014177
      8        1           0.000032068   -0.000089787   -0.000027900
      9        1          -0.000010737    0.000022905   -0.000096418
     10        1           0.000026520    0.000003461   -0.000018746
     11        1          -0.000014371   -0.000017168   -0.000014381
     12        1           0.000013346   -0.000015959    0.000015448
     13        1          -0.000001543    0.000024235   -0.000009144
     14        1           0.000058141    0.000009133   -0.000021533
     15        1           0.000148823    0.000120881    0.000108068
 -------------------------------------------------------------------
 Cartesian Forces:  Max     0.000845652 RMS     0.000188813
 Leave Link  716 at Sun Dec  5 16:43:40 2021, MaxMem=  1342177280 cpu:         0.3
 (Enter /opt/g09/l103.exe)

 GradGradGradGradGradGradGradGradGradGradGradGradGradGradGradGradGradGrad
 Berny optimization.
 Using GEDIIS/GDIIS optimizer.
 FormGI is forming the generalized inverse of G from B-inverse, IUseBI=4.
 Internal  Forces:  Max     0.000445832 RMS     0.000080192
 Search for a local minimum.
 Step number   2 out of a maximum of   79
 All quantities printed in internal units (Hartrees-Bohrs-Radians)
 RMS Force = .80192D-04 SwitMx=.10000D-02 MixMth= 2
 Mixed Optimization -- En-DIIS/RFO-DIIS
 Swapping is turned off.
 Update second derivatives using D2CorX and points    1    2
 DE= -2.54D-05 DEPred=-2.31D-05 R= 1.10D+00
 TightC=F SS=  1.41D+00  RLast= 1.35D-02 DXNew= 5.0454D-01 4.0553D-02
 Trust test= 1.10D+00 RLast= 1.35D-02 DXMaxT set to 3.00D-01
 ITU=  1  0
     Eigenvalues ---    0.00292   0.00293   0.00363   0.01250   0.04347
     Eigenvalues ---    0.05460   0.05463   0.05580   0.05582   0.05603
     Eigenvalues ---    0.05696   0.05867   0.06617   0.14935   0.16000
     Eigenvalues ---    0.16000   0.16000   0.16000   0.16000   0.16000
     Eigenvalues ---    0.16000   0.16000   0.16061   0.16489   0.16729
     Eigenvalues ---    0.28892   0.28955   0.29788   0.34045   0.34063
     Eigenvalues ---    0.34239   0.34243   0.34383   0.34384   0.34384
     Eigenvalues ---    0.34385   0.34499   0.37277   0.54898
 En-DIIS/RFO-DIIS IScMMF=        0 using points:     2    1
 RFO step:  Lambda=-1.12116997D-06.
 NNeg= 0 NP= 2 Switch=  2.50D-03 Rises=F DC=  2.54D-05 SmlDif=  1.00D-05
 RMS Error=  0.2254497413D-03 NUsed= 2 EDIIS=F
 DidBck=F Rises=F RFO-DIIS coefs:    1.07786   -0.07786
 Iteration  1 RMS(Cart)=  0.00107624 RMS(Int)=  0.00000095
 Iteration  2 RMS(Cart)=  0.00000134 RMS(Int)=  0.00000053
 Iteration  3 RMS(Cart)=  0.00000000 RMS(Int)=  0.00000053
 ITry= 1 IFail=0 DXMaxC= 3.18D-03 DCOld= 1.00D+10 DXMaxT= 3.00D-01 DXLimC= 3.00D+00 Rises=F
 Variable       Old X    -DE/DX   Delta X   Delta X   Delta X     New X
                                 (Linear)    (Quad)   (Total)
    R1        2.90168   0.00007  -0.00005   0.00028   0.00023   2.90190
    R2        2.07300  -0.00002   0.00004  -0.00007  -0.00003   2.07297
    R3        2.06692   0.00000   0.00000  -0.00001  -0.00001   2.06691
    R4        2.06946  -0.00007   0.00002  -0.00021  -0.00020   2.06926
    R5        2.90167   0.00007  -0.00005   0.00028   0.00023   2.90190
    R6        2.89041   0.00014  -0.00014   0.00051   0.00038   2.89079
    R7        2.71343   0.00045   0.00037   0.00115   0.00152   2.71495
    R8        2.06946  -0.00007   0.00002  -0.00021  -0.00020   2.06926
    R9        2.06691   0.00000   0.00000  -0.00001  -0.00001   2.06691
   R10        2.07301  -0.00002   0.00004  -0.00007  -0.00004   2.07297
   R11        2.06699  -0.00002   0.00001  -0.00007  -0.00006   2.06693
   R12        2.06699  -0.00002   0.00001  -0.00007  -0.00006   2.06693
   R13        2.06762  -0.00005   0.00006  -0.00017  -0.00011   2.06751
   R14        1.82683   0.00019   0.00052   0.00032   0.00084   1.82766
    A1        1.93138   0.00001  -0.00011   0.00004  -0.00007   1.93131
    A2        1.92154   0.00002  -0.00022   0.00019  -0.00003   1.92151
    A3        1.94528  -0.00010  -0.00003  -0.00070  -0.00072   1.94455
    A4        1.88836  -0.00001   0.00007  -0.00007   0.00000   1.88836
    A5        1.87913   0.00004   0.00014   0.00018   0.00032   1.87945
    A6        1.89657   0.00005   0.00017   0.00037   0.00054   1.89711
    A7        1.93362   0.00004  -0.00003   0.00104   0.00100   1.93462
    A8        1.93359   0.00004   0.00000   0.00111   0.00110   1.93470
    A9        1.91503  -0.00005   0.00005  -0.00115  -0.00111   1.91393
   A10        1.93362   0.00004  -0.00001   0.00109   0.00109   1.93471
   A11        1.91503  -0.00005   0.00005  -0.00115  -0.00110   1.91393
   A12        1.83027  -0.00005  -0.00005  -0.00110  -0.00115   1.82912
   A13        1.94529  -0.00010  -0.00003  -0.00070  -0.00073   1.94456
   A14        1.92156   0.00002  -0.00023   0.00018  -0.00005   1.92151
   A15        1.93136   0.00001  -0.00011   0.00005  -0.00006   1.93131
   A16        1.89657   0.00005   0.00017   0.00037   0.00054   1.89711
   A17        1.87912   0.00004   0.00014   0.00019   0.00033   1.87945
   A18        1.88835  -0.00001   0.00007  -0.00006   0.00000   1.88836
   A19        1.92188   0.00000  -0.00020   0.00003  -0.00016   1.92171
   A20        1.92188   0.00000  -0.00020   0.00003  -0.00016   1.92172
   A21        1.93514  -0.00005  -0.00007  -0.00032  -0.00038   1.93476
   A22        1.88813  -0.00001   0.00011  -0.00009   0.00002   1.88815
   A23        1.89796   0.00003   0.00018   0.00017   0.00035   1.89831
   A24        1.89795   0.00003   0.00018   0.00018   0.00036   1.89831
   A25        1.87786  -0.00024  -0.00011  -0.00164  -0.00175   1.87611
    D1        1.01697  -0.00007   0.00021  -0.00275  -0.00254   1.01443
    D2       -3.11285   0.00005   0.00017   0.00017   0.00034  -3.11252
    D3       -1.10018  -0.00001   0.00013  -0.00121  -0.00108  -1.10126
    D4        3.10365  -0.00006   0.00008  -0.00268  -0.00260   3.10104
    D5       -1.02617   0.00005   0.00004   0.00023   0.00028  -1.02590
    D6        0.98650   0.00000   0.00000  -0.00114  -0.00114   0.98535
    D7       -1.07360  -0.00006   0.00012  -0.00254  -0.00242  -1.07602
    D8        1.07976   0.00006   0.00009   0.00037   0.00046   1.08022
    D9        3.09243   0.00000   0.00005  -0.00101  -0.00096   3.09148
   D10        1.07356   0.00006  -0.00011   0.00257   0.00246   1.07602
   D11       -3.10366   0.00006  -0.00007   0.00270   0.00263  -3.10103
   D12       -1.01698   0.00007  -0.00020   0.00276   0.00256  -1.01442
   D13       -1.07978  -0.00006  -0.00008  -0.00035  -0.00043  -1.08022
   D14        1.02617  -0.00005  -0.00004  -0.00022  -0.00026   1.02591
   D15        3.11285  -0.00005  -0.00017  -0.00016  -0.00033   3.11253
   D16       -3.09247   0.00000  -0.00004   0.00104   0.00099  -3.09147
   D17       -0.98651   0.00000   0.00000   0.00116   0.00117  -0.98534
   D18        1.10017   0.00001  -0.00013   0.00123   0.00110   1.10127
   D19        1.02460  -0.00006   0.00008  -0.00140  -0.00131   1.02328
   D20        3.10523  -0.00006  -0.00003  -0.00147  -0.00150   3.10373
   D21       -1.07669  -0.00006   0.00003  -0.00143  -0.00140  -1.07809
   D22       -3.10522   0.00006   0.00003   0.00148   0.00152  -3.10371
   D23       -1.02459   0.00006  -0.00008   0.00141   0.00133  -1.02326
   D24        1.07668   0.00006  -0.00002   0.00145   0.00143   1.07811
   D25       -1.04031   0.00000   0.00006   0.00004   0.00010  -1.04021
   D26        1.04032   0.00000  -0.00005  -0.00003  -0.00008   1.04024
   D27       -3.14159   0.00000   0.00000   0.00001   0.00001  -3.14158
   D28        1.06414   0.00000   0.00001  -0.00010  -0.00009   1.06405
   D29       -1.06415   0.00000  -0.00001   0.00010   0.00009  -1.06406
   D30        3.14157   0.00000   0.00000   0.00001   0.00001   3.14158
         Item               Value     Threshold  Converged?
 Maximum Force            0.000446     0.000450     YES
 RMS     Force            0.000080     0.000300     YES
 Maximum Displacement     0.003183     0.001800     NO 
 RMS     Displacement     0.001076     0.001200     YES
 Predicted change in Energy=-1.755969D-06
 Lowest energy point so far.  Saving SCF results.
 GradGradGradGradGradGradGradGradGradGradGradGradGradGradGradGradGradGrad

 Leave Link  103 at Sun Dec  5 16:43:40 2021, MaxMem=  1342177280 cpu:         0.4
 (Enter /opt/g09/l202.exe)
                          Input orientation:                          
 ---------------------------------------------------------------------
 Center     Atomic      Atomic             Coordinates (Angstroms)
 Number     Number       Type             X           Y           Z
 ---------------------------------------------------------------------
      1          6           0       -0.009112    1.543084    0.002331
      2          6           0        0.003518    0.007622    0.020483
      3          6           0        0.760856   -0.518141    1.248546
      4          6           0       -1.420733   -0.549099   -0.020375
      5          8           0        0.624591   -0.484845   -1.177774
      6          1           0        1.014111    1.938498    0.001877
      7          1           0       -0.515165    1.904099   -0.897609
      8          1           0       -0.522231    1.949087    0.880345
      9          1           0        0.280914   -0.200951    2.180255
     10          1           0        0.797936   -1.611074    1.227662
     11          1           0        1.790761   -0.140610    1.258911
     12          1           0       -1.936004   -0.198078   -0.919051
     13          1           0       -1.396528   -1.642307   -0.045846
     14          1           0       -1.988982   -0.230025    0.858431
     15          1           0        1.533197   -0.153722   -1.191487
 ---------------------------------------------------------------------
                    Distance matrix (angstroms):
                    1          2          3          4          5
     1  C    0.000000
     2  C    1.535621   0.000000
     3  C    2.528745   1.535619   0.000000
     4  C    2.523969   1.529738   2.523975   0.000000
     5  O    2.430375   1.436689   2.430371   2.350968   0.000000
     6  H    1.096968   2.179434   2.766478   3.480963   2.723214
     7  H    1.093762   2.169920   3.478715   2.758219   2.661689
     8  H    1.095006   2.187479   2.805192   2.803486   3.387488
     9  H    2.805195   2.187479   1.095005   2.803494   3.387487
    10  H    3.478717   2.169921   1.093761   2.758239   2.661684
    11  H    2.766470   2.179429   1.096969   3.480967   2.723211
    12  H    2.755631   2.164897   3.474762   1.093773   2.589559
    13  H    3.474760   2.164900   2.755631   1.093773   2.589576
    14  H    2.792258   2.174554   2.792277   1.094081   3.322924
    15  H    2.585163   1.958270   2.585164   3.202114   0.967158
                    6          7          8          9         10
     6  H    0.000000
     7  H    1.774527   0.000000
     8  H    1.769792   1.778537   0.000000
     9  H    3.140088   3.812902   2.637702   0.000000
    10  H    3.761482   4.312476   3.812902   1.778537   0.000000
    11  H    2.550688   3.761476   3.140076   1.769790   1.774526
    12  H    3.757159   2.537398   3.137977   3.810568   3.752248
    13  H    4.316900   3.752239   3.810556   3.137968   2.537414
    14  H    3.801940   3.132139   2.626855   2.626878   3.132178
    15  H    2.463930   2.918352   3.597093   3.597094   2.918350
                   11         12         13         14         15
    11  H    0.000000
    12  H    4.316896   0.000000
    13  H    3.757166   1.771813   0.000000
    14  H    3.801951   1.778558   1.778555   0.000000
    15  H    2.463932   3.480164   3.480182   4.075994   0.000000
 Stoichiometry    C4H10O
 Framework group  C1[X(C4H10O)]
 Deg. of freedom    39
 Full point group                 C1      NOp   1
 RotChk:  IX=0 Diff= 7.56D-04
 Largest Abelian subgroup         C1      NOp   1
 Largest concise Abelian subgroup C1      NOp   1
                         Standard orientation:                         
 ---------------------------------------------------------------------
 Center     Atomic      Atomic             Coordinates (Angstroms)
 Number     Number       Type             X           Y           Z
 ---------------------------------------------------------------------
      1          6           0       -0.691817    1.264495   -0.508041
      2          6           0        0.005059   -0.000003    0.014973
      3          6           0       -0.692249   -1.264250   -0.508064
      4          6           0        1.487543   -0.000246   -0.362302
      5          8           0       -0.008052   -0.000016    1.451602
      6          1           0       -1.747599    1.275649   -0.210489
      7          1           0       -0.211293    2.156273   -0.095556
      8          1           0       -0.653662    1.318974   -1.601025
      9          1           0       -0.654114   -1.318727   -1.601048
     10          1           0       -0.212043   -2.156204   -0.095591
     11          1           0       -1.748039   -1.275039   -0.210518
     12          1           0        1.980257    0.885568    0.048681
     13          1           0        1.979960   -0.886245    0.048637
     14          1           0        1.612829   -0.000243   -1.449186
     15          1           0       -0.933096    0.000144    1.733893
 ---------------------------------------------------------------------
 Rotational constants (GHZ):      4.6923572      4.6663887      4.4799267
 Leave Link  202 at Sun Dec  5 16:43:40 2021, MaxMem=  1342177280 cpu:         0.1
 (Enter /opt/g09/l301.exe)
 Standard basis: 6-31G(d,p) (6D, 7F)
 Ernie: Thresh=  0.10000D-02 Tol=  0.10000D-05 Strict=F.
 There are   125 symmetry adapted cartesian basis functions of A   symmetry.
 There are   125 symmetry adapted basis functions of A   symmetry.
   125 basis functions,   210 primitive gaussians,   125 cartesian basis functions
    21 alpha electrons       21 beta electrons
       nuclear repulsion energy       198.9707159381 Hartrees.
 IExCor=  402 DFT=T Ex+Corr=B3LYP ExCW=0 ScaHFX=  0.200000
 ScaDFX=  0.800000  0.720000  1.000000  0.810000 ScalE2=  1.000000  1.000000
 IRadAn=      0 IRanWt=     -1 IRanGd=            0 ICorTp=0 IEmpDi=131
 NAtoms=   15 NActive=   15 NUniq=   15 SFac= 1.00D+00 NAtFMM=   60 NAOKFM=F Big=F
 Integral buffers will be    131072 words long.
 Raffenetti 2 integral format.
 Two-electron integral symmetry is turned on.
 R6Disp:  Grimme-D3 Dispersion energy=       -0.0105383515 Hartrees.
 Nuclear repulsion after empirical dispersion term =      198.9601775866 Hartrees.
 Leave Link  301 at Sun Dec  5 16:43:40 2021, MaxMem=  1342177280 cpu:         0.5
 (Enter /opt/g09/l302.exe)
 NPDir=0 NMtPBC=     1 NCelOv=     1 NCel=       1 NClECP=     1 NCelD=      1
         NCelK=      1 NCelE2=     1 NClLst=     1 CellRange=     0.0.
[...]
 Gap=     0.273 Goal=   None    Shift=    0.000
 RMSDP=1.01D-07 MaxDP=3.12D-06 DE=-2.51D-09 OVMax= 5.63D-06

 Cycle   7  Pass 1  IDiag  1:
 E= -233.767757923714     Delta-E=       -0.000000000359 Rises=F Damp=F
 DIIS: error= 2.92D-07 at cycle   7 NSaved=   7.
 NSaved= 7 IEnMin= 7 EnMin= -233.767757923714     IErMin= 7 ErrMin= 2.92D-07
 ErrMax= 2.92D-07  0.00D+00 EMaxC= 1.00D-01 BMatC= 1.68D-11 BMatP= 4.95D-10
 IDIUse=1 WtCom= 1.00D+00 WtEn= 0.00D+00
 Coeff-Com:  0.370D-05-0.113D-02 0.396D-02 0.276D-01 0.932D-01 0.204D+00
 Coeff-Com:  0.672D+00
 Coeff:      0.370D-05-0.113D-02 0.396D-02 0.276D-01 0.932D-01 0.204D+00
 Coeff:      0.672D+00
 Gap=     0.273 Goal=   None    Shift=    0.000
 RMSDP=2.59D-08 MaxDP=5.87D-07 DE=-3.59D-10 OVMax= 9.40D-07

 Cycle   8  Pass 1  IDiag  1:
 E= -233.767757923730     Delta-E=       -0.000000000016 Rises=F Damp=F
 DIIS: error= 1.17D-07 at cycle   8 NSaved=   8.
 NSaved= 8 IEnMin= 8 EnMin= -233.767757923730     IErMin= 8 ErrMin= 1.17D-07
 ErrMax= 1.17D-07  0.00D+00 EMaxC= 1.00D-01 BMatC= 1.15D-12 BMatP= 1.68D-11
 IDIUse=1 WtCom= 1.00D+00 WtEn= 0.00D+00
 Coeff-Com:  0.673D-05-0.506D-03 0.293D-03 0.543D-02 0.202D-01 0.613D-01
 Coeff-Com:  0.287D+00 0.626D+00
 Coeff:      0.673D-05-0.506D-03 0.293D-03 0.543D-02 0.202D-01 0.613D-01
 Coeff:      0.287D+00 0.626D+00
 Gap=     0.273 Goal=   None    Shift=    0.000
 RMSDP=9.60D-09 MaxDP=2.72D-07 DE=-1.64D-11 OVMax= 2.62D-07

 SCF Done:  E(RB3LYP) =  -233.767757924     A.U. after    8 cycles
            NFock=  8  Conv=0.96D-08     -V/T= 2.0047
 KE= 2.326770602599D+02 PE=-9.424845217717D+02 EE= 2.770795260014D+02
 Leave Link  502 at Sun Dec  5 16:44:15 2021, MaxMem=  1342177280 cpu:        61.2
 (Enter /opt/g09/l801.exe)
 DoSCS=F DFT=T ScalE2(SS,OS)=  1.000000  1.000000
 Range of M.O.s used for correlation:     1   195
 NBasis=   195 NAE=    21 NBE=    21 NFC=     0 NFV=     0
 NROrb=    195 NOA=    21 NOB=    21 NVA=   174 NVB=   174

 **** Warning!!: The largest alpha MO coefficient is  0.70286078D+02

 Leave Link  801 at Sun Dec  5 16:44:15 2021, MaxMem=  1342177280 cpu:         0.4
 (Enter /opt/g09/l1002.exe)
 Minotr:  Closed shell wavefunction.
          Direct CPHF calculation.
          Differentiating once with respect to magnetic field using GIAOs.
          Electric field/nuclear overlap derivatives assumed to be zero.
          Requested convergence is 1.0D-08 RMS, and 1.0D-07 maximum.
          Secondary convergence is 1.0D-12 RMS, and 1.0D-12 maximum.
          NewPWx=T KeepS1=F KeepF1=F KeepIn=T MapXYZ=F SortEE=F KeepMc=T.
          MDV=    1342176961 using IRadAn=       2.
 Generate precomputed XC quadrature information.
 Keep R3 ints in memory in canonical form, NReq=186981162.
 FoFCou: FMM=F IPFlag=           0 FMFlag=           0 FMFlg1=           0
         NFxFlg=           0 DoJE=F BraDBF=F KetDBF=F FulRan=T
         wScrn=  0.000000 ICntrl=     600 IOpCl=  0 I1Cent=           0 NGrid=           0
         NMat0=    1 NMatS0=  19110 NMatT0=    0 NMatD0=    1 NMtDS0=    0 NMtDT0=    0
 Symmetry not used in FoFCou.
          Solving linear equations simultaneously, MaxMat=       0.
 FoFJK:  IHMeth= 1 ICntrl=    6127 DoSepK=F KAlg= 0 I1Cent=   0 FoldK=F
 IRaf=         1 NMat=   1 IRICut=       1 DoRegI=T DoRafI=F ISym2E= 0.
          There are     3 degrees of freedom in the 1st order CPHF.  IDoFFX=0 NUNeed=     3.
      3 vectors produced by pass  0 Test12= 1.22D-13 3.33D-08 XBig12= 2.85D+00 4.38D-01.
 AX will form     3 AO Fock derivatives at one time.
      3 vectors produced by pass  1 Test12= 1.22D-13 3.33D-08 XBig12= 4.73D-03 2.07D-02.
      3 vectors produced by pass  2 Test12= 1.22D-13 3.33D-08 XBig12= 8.90D-06 1.12D-03.
      3 vectors produced by pass  3 Test12= 1.22D-13 3.33D-08 XBig12= 2.55D-08 4.87D-05.
      3 vectors produced by pass  4 Test12= 1.22D-13 3.33D-08 XBig12= 6.84D-11 2.98D-06.
      3 vectors produced by pass  5 Test12= 1.22D-13 3.33D-08 XBig12= 1.09D-13 6.79D-08.
 InvSVY:  IOpt=1 It=  1 EMax= 2.22D-16
 Solved reduced A of dimension    18 with     3 vectors.
 Calculating GIAO nuclear magnetic shielding tensors.
 SCF GIAO Magnetic shielding tensor (ppm):
      1  C    Isotropic =   149.3254   Anisotropy =    51.0548
   XX=   143.1311   YX=   -19.9090   ZX=     7.3842
   XY=   -19.3908   YY=   166.9638   ZY=   -14.5886
   XZ=     5.6352   YZ=   -13.8163   ZZ=   137.8813
   Eigenvalues:   131.0569   133.5573   183.3620
      2  C    Isotropic =   108.6004   Anisotropy =    54.9194
   XX=    87.9442   YX=     0.0007   ZX=    -4.5693
   XY=     0.0009   YY=    92.8958   ZY=     0.0005
   XZ=    -3.0303   YZ=     0.0001   ZZ=   144.9612
   Eigenvalues:    87.6921    92.8958   145.2133
      3  C    Isotropic =   149.3257   Anisotropy =    51.0549
   XX=   143.1447   YX=    19.9171   ZX=     7.3897
   XY=    19.3985   YY=   166.9503   ZY=    14.5866
   XZ=     5.6405   YZ=    13.8149   ZZ=   137.8821
   Eigenvalues:   131.0575   133.5573   183.3623
      4  C    Isotropic =   153.4709   Anisotropy =    45.4170
   XX=   181.7237   YX=    -0.0072   ZX=    -9.1983
   XY=    -0.0071   YY=   138.1299   ZY=     0.0015
   XZ=    -9.5067   YZ=     0.0016   ZZ=   140.5592
   Eigenvalues:   138.1299   138.5339   183.7490
      5  O    Isotropic =   223.8676   Anisotropy =    73.0921
   XX=   230.2617   YX=    -0.0071   ZX=   -34.3811
   XY=    -0.0069   YY=   185.9282   ZY=     0.0053
   XZ=   -19.5602   YZ=     0.0030   ZZ=   255.4129
   Eigenvalues:   185.9282   213.0789   272.5957
      6  H    Isotropic =    30.9527   Anisotropy =     7.0146
   XX=    34.3112   YX=    -1.7367   ZX=    -0.5249
   XY=    -3.4759   YY=    30.4732   ZY=     0.1897
   XZ=     0.2548   YZ=    -0.4766   ZZ=    28.0738
   Eigenvalues:    28.0413    29.1876    35.6291
      7  H    Isotropic =    30.4998   Anisotropy =     7.2074
   XX=    28.7832   YX=    -0.3188   ZX=     0.2344
   XY=     1.2048   YY=    35.2117   ZY=     1.3155
   XZ=     0.3947   YZ=     0.0415   ZZ=    27.5044
   Eigenvalues:    27.3898    28.8048    35.3048
      8  H    Isotropic =    30.6318   Anisotropy =     8.0940
   XX=    28.1307   YX=    -1.1967   ZX=     1.6082
   XY=    -1.1153   YY=    29.7050   ZY=    -3.5734
   XZ=     0.9968   YZ=    -2.6144   ZZ=    34.0599
   Eigenvalues:    27.4861    28.3816    36.0278
      9  H    Isotropic =    30.6318   Anisotropy =     8.0941
   XX=    28.1314   YX=     1.1972   ZX=     1.6094
   XY=     1.1159   YY=    29.7041   ZY=     3.5728
   XZ=     0.9977   YZ=     2.6141   ZZ=    34.0600
   Eigenvalues:    27.4861    28.3816    36.0279
     10  H    Isotropic =    30.4998   Anisotropy =     7.2076
   XX=    28.7829   YX=     0.3210   ZX=     0.2340
   XY=    -1.2026   YY=    35.2121   ZY=    -1.3155
   XZ=     0.3947   YZ=    -0.0415   ZZ=    27.5044
   Eigenvalues:    27.3898    28.8048    35.3048
     11  H    Isotropic =    30.9527   Anisotropy =     7.0146
   XX=    34.3130   YX=     1.7354   ZX=    -0.5249
   XY=     3.4746   YY=    30.4714   ZY=    -0.1894
   XZ=     0.2551   YZ=     0.4766   ZZ=    28.0738
   Eigenvalues:    28.0413    29.1876    35.6291
     12  H    Isotropic =    30.6040   Anisotropy =     7.5759
   XX=    33.1933   YX=     3.9774   ZX=     1.2377
   XY=     2.4036   YY=    30.9798   ZY=     1.1044
   XZ=     0.3819   YZ=     0.8845   ZZ=    27.6390
   Eigenvalues:    27.3640    28.7935    35.6546
     13  H    Isotropic =    30.6040   Anisotropy =     7.5759
   XX=    33.1911   YX=    -3.9782   ZX=     1.2371
   XY=    -2.4043   YY=    30.9821   ZY=    -1.1047
   XZ=     0.3815   YZ=    -0.8846   ZZ=    27.6389
   Eigenvalues:    27.3639    28.7936    35.6546
     14  H    Isotropic =    30.9732   Anisotropy =     7.7707
   XX=    31.1794   YX=    -0.0005   ZX=    -3.8168
   XY=    -0.0005   YY=    27.9297   ZY=     0.0005
   XZ=    -3.0113   YZ=     0.0004   ZZ=    33.8104
   Eigenvalues:    27.9297    28.8362    36.1536
     15  H    Isotropic =    32.0379   Anisotropy =    14.4233
   XX=    36.6230   YX=    -0.0020   ZX=    -4.9671
   XY=    -0.0020   YY=    24.9416   ZY=     0.0008
   XZ=    -6.9891   YZ=     0.0011   ZZ=    34.5492
   Eigenvalues:    24.9416    29.5187    41.6535
 End of Minotr F.D. properties file   721 does not exist.
 End of Minotr F.D. properties file   722 does not exist.
 End of Minotr F.D. properties file   788 does not exist.
 Leave Link 1002 at Sun Dec  5 16:44:20 2021, MaxMem=  1342177280 cpu:       116.1
 (Enter /opt/g09/l601.exe)
 Copying SCF densities to generalized density rwf, IOpCl= 0 IROHF=0.

 **********************************************************************

            Population analysis using the SCF density.

 **********************************************************************

 Orbital symmetries:
       Occupied  (A) (A) (A) (A) (A) (A) (A) (A) (A) (A) (A) (A)
                 (A) (A) (A) (A) (A) (A) (A) (A) (A)
       Virtual   (A) (A) (A) (A) (A) (A) (A) (A) (A) (A) (A) (A)
                 (A) (A) (A) (A) (A) (A) (A) (A) (A) (A) (A) (A)
                 (A) (A) (A) (A) (A) (A) (A) (A) (A) (A) (A) (A)
                 (A) (A) (A) (A) (A) (A) (A) (A) (A) (A) (A) (A)
                 (A) (A) (A) (A) (A) (A) (A) (A) (A) (A) (A) (A)
                 (A) (A) (A) (A) (A) (A) (A) (A) (A) (A) (A) (A)
                 (A) (A) (A) (A) (A) (A) (A) (A) (A) (A) (A) (A)
                 (A) (A) (A) (A) (A) (A) (A) (A) (A) (A) (A) (A)
                 (A) (A) (A) (A) (A) (A) (A) (A) (A) (A) (A) (A)
                 (A) (A) (A) (A) (A) (A) (A) (A) (A) (A) (A) (A)
                 (A) (A) (A) (A) (A) (A) (A) (A) (A) (A) (A) (A)
                 (A) (A) (A) (A) (A) (A) (A) (A) (A) (A) (A) (A)
                 (A) (A) (A) (A) (A) (A) (A) (A) (A) (A) (A) (A)
                 (A) (A) (A) (A) (A) (A) (A) (A) (A) (A) (A) (A)
                 (A) (A) (A) (A) (A) (A)
 The electronic state is 1-A.
 Alpha  occ. eigenvalues --  -19.12028 -10.23103 -10.16251 -10.16250 -10.15702
 Alpha  occ. eigenvalues --   -1.02344  -0.79198  -0.69552  -0.69447  -0.57401
 Alpha  occ. eigenvalues --   -0.49427  -0.45660  -0.45351  -0.41748  -0.40279
 Alpha  occ. eigenvalues --   -0.38514  -0.37139  -0.36104  -0.35337  -0.32543
 Alpha  occ. eigenvalues --   -0.27768
 Alpha virt. eigenvalues --   -0.00458   0.02557   0.03027   0.03454   0.04643
 Alpha virt. eigenvalues --    0.05837   0.05984   0.06906   0.07003   0.07804
 Alpha virt. eigenvalues --    0.10362   0.10794   0.10965   0.12217   0.13031
 Alpha virt. eigenvalues --    0.13662   0.17697   0.17938   0.18844   0.19718
 Alpha virt. eigenvalues --    0.20368   0.20741   0.22697   0.22867   0.23511
 Alpha virt. eigenvalues --    0.23612   0.23895   0.25875   0.27935   0.28138
 Alpha virt. eigenvalues --    0.31118   0.32069   0.33804   0.37657   0.39247
 Alpha virt. eigenvalues --    0.39613   0.44811   0.44858   0.46962   0.47271
 Alpha virt. eigenvalues --    0.47755   0.50629   0.54063   0.54560   0.57128
 Alpha virt. eigenvalues --    0.57971   0.58455   0.59201   0.60619   0.62076
 Alpha virt. eigenvalues --    0.62775   0.63788   0.64404   0.70458   0.71186
 Alpha virt. eigenvalues --    0.72461   0.72617   0.73522   0.78839   0.84641
 Alpha virt. eigenvalues --    0.91075   0.91850   0.92744   0.97508   0.97960
 Alpha virt. eigenvalues --    1.04400   1.04708   1.06031   1.06994   1.13049
 Alpha virt. eigenvalues --    1.13366   1.16915   1.16960   1.17562   1.22231
 Alpha virt. eigenvalues --    1.23304   1.28407   1.31186   1.31668   1.32031
 Alpha virt. eigenvalues --    1.39902   1.41069   1.44495   1.46131   1.46878
 Alpha virt. eigenvalues --    1.47565   1.50245   1.58295   1.66650   1.75984
 Alpha virt. eigenvalues --    1.79748   1.80004   1.82869   1.85800   1.89103
 Alpha virt. eigenvalues --    1.89937   1.90214   1.99375   2.01910   2.05485
 Alpha virt. eigenvalues --    2.10011   2.14745   2.20077   2.20323   2.21909
 Alpha virt. eigenvalues --    2.26896   2.28656   2.32293   2.33718   2.35501
 Alpha virt. eigenvalues --    2.37143   2.37252   2.38398   2.39602   2.41525
 Alpha virt. eigenvalues --    2.44950   2.46438   2.50189   2.63503   2.64950
 Alpha virt. eigenvalues --    2.67046   2.70434   2.72728   2.73224   2.76695
 Alpha virt. eigenvalues --    2.83432   2.84832   2.87974   2.96389   3.08234
 Alpha virt. eigenvalues --    3.10639   3.21106   3.22382   3.23896   3.24836
 Alpha virt. eigenvalues --    3.30945   3.32015   3.41964   3.47542   3.51840
 Alpha virt. eigenvalues --    3.53714   3.53831   3.55555   3.60785   3.61255
 Alpha virt. eigenvalues --    3.62759   3.65852   3.76421   3.78268   3.78663
 Alpha virt. eigenvalues --    3.84358   3.90887   4.12347   4.20038   4.20946
 Alpha virt. eigenvalues --    4.22382   4.27154   4.27427   4.35515   4.48805
 Alpha virt. eigenvalues --    4.51748   5.15316   5.44540   5.80167   6.91027
 Alpha virt. eigenvalues --    7.04002   7.08194   7.19284   7.35366  23.76478
 Alpha virt. eigenvalues --   23.97225  24.03093  24.04238  50.00731
          Condensed to atoms (all electrons):
               1          2          3          4          5          6
     1  C    5.116521   0.274881   0.007464  -0.103899  -0.005994   0.382665
     2  C    0.274881   4.698573   0.274880   0.287468   0.217200   0.000782
     3  C    0.007464   0.274880   5.116520  -0.103895  -0.005995  -0.026450
     4  C   -0.103899   0.287468  -0.103895   5.215033  -0.150377   0.018404
     5  O   -0.005994   0.217200  -0.005995  -0.150377   8.157902  -0.011748
     6  H    0.382665   0.000782  -0.026450   0.018404  -0.011748   0.581955
     7  H    0.411639  -0.035892   0.020699  -0.016479  -0.004435  -0.026732
     8  H    0.418717  -0.023173  -0.017426  -0.004396   0.008866  -0.032598
     9  H   -0.017426  -0.023175   0.418717  -0.004396   0.008866   0.000208
    10  H    0.020699  -0.035890   0.411639  -0.016480  -0.004435  -0.000079
    11  H   -0.026450   0.000781   0.382665   0.018404  -0.011749   0.002323
    12  H   -0.013192  -0.016769   0.017313   0.391853  -0.004681  -0.000033
    13  H    0.017314  -0.016773  -0.013191   0.391853  -0.004680  -0.000415
    14  H   -0.010439  -0.025266  -0.010439   0.415340   0.009645  -0.000070
    15  H   -0.032531   0.053311  -0.032531   0.031161   0.243011   0.003751
               7          8          9         10         11         12
     1  C    0.411639   0.418717  -0.017426   0.020699  -0.026450  -0.013192
     2  C   -0.035892  -0.023173  -0.023175  -0.035890   0.000781  -0.016769
     3  C    0.020699  -0.017426   0.418717   0.411639   0.382665   0.017313
     4  C   -0.016479  -0.004396  -0.004396  -0.016480   0.018404   0.391853
     5  O   -0.004435   0.008866   0.008866  -0.004435  -0.011749  -0.004681
     6  H   -0.026732  -0.032598   0.000208  -0.000079   0.002323  -0.000033
     7  H    0.549496  -0.029663  -0.000010  -0.000367  -0.000079   0.002465
     8  H   -0.029663   0.560735   0.000150  -0.000010   0.000208   0.000084
     9  H   -0.000010   0.000150   0.560735  -0.029663  -0.032599  -0.000110
    10  H   -0.000367  -0.000010  -0.029663   0.549495  -0.026732  -0.000028
    11  H   -0.000079   0.000208  -0.032599  -0.026732   0.581956  -0.000415
    12  H    0.002465   0.000084  -0.000110  -0.000028  -0.000415   0.552936
    13  H   -0.000028  -0.000110   0.000084   0.002465  -0.000033  -0.024342
    14  H    0.000054   0.000260   0.000260   0.000054  -0.000070  -0.030273
    15  H   -0.000781  -0.000231  -0.000231  -0.000781   0.003751  -0.000065
              13         14         15
     1  C    0.017314  -0.010439  -0.032531
     2  C   -0.016773  -0.025266   0.053311
     3  C   -0.013191  -0.010439  -0.032531
     4  C    0.391853   0.415340   0.031161
     5  O   -0.004680   0.009645   0.243011
     6  H   -0.000415  -0.000070   0.003751
     7  H   -0.000028   0.000054  -0.000781
     8  H   -0.000110   0.000260  -0.000231
     9  H    0.000084   0.000260  -0.000231
    10  H    0.002465   0.000054  -0.000781
    11  H   -0.000033  -0.000070   0.003751
    12  H   -0.024342  -0.030273  -0.000065
    13  H    0.552938  -0.030273  -0.000065
    14  H   -0.030273   0.568013  -0.000658
    15  H   -0.000065  -0.000658   0.488871
 Mulliken charges:
               1
     1  C   -0.439968
     2  C    0.369063
     3  C   -0.439971
     4  C   -0.369592
     5  O   -0.441397
     6  H    0.108039
     7  H    0.130112
     8  H    0.118588
     9  H    0.118587
    10  H    0.130112
    11  H    0.108039
    12  H    0.125255
    13  H    0.125254
    14  H    0.113862
    15  H    0.244016
 Sum of Mulliken charges =   0.00000
 Mulliken charges with hydrogens summed into heavy atoms:
               1
     1  C   -0.083229
     2  C    0.369063
     3  C   -0.083232
     4  C   -0.005221
     5  O   -0.197381
 Electronic spatial extent (au):  <R**2>=            451.5471
 Charge=              0.0000 electrons
 Dipole moment (field-independent basis, Debye):
    X=             -1.2059    Y=              0.0002    Z=             -1.1451  Tot=              1.6630
 Quadrupole moment (field-independent basis, Debye-Ang):
   XX=            -32.3043   YY=            -34.1649   ZZ=            -35.2706
   XY=             -0.0003   XZ=             -2.8375   YZ=              0.0005
 Traceless Quadrupole moment (field-independent basis, Debye-Ang):
   XX=              1.6090   YY=             -0.2516   ZZ=             -1.3573
   XY=             -0.0003   XZ=             -2.8375   YZ=              0.0005
 Octapole moment (field-independent basis, Debye-Ang**2):
  XXX=             -2.9217  YYY=             -0.0010  ZZZ=              1.8930  XYY=              1.7296
  XXY=              0.0010  XXZ=              5.9772  XZZ=             -5.4802  YZZ=              0.0010
  YYZ=              2.4042  XYZ=             -0.0005
 Hexadecapole moment (field-independent basis, Debye-Ang**3):
 XXXX=           -222.3361 YYYY=           -222.5362 ZZZZ=           -169.9195 XXXY=             -0.0007
 XXXZ=             -4.3032 YYYX=              0.0001 YYYZ=              0.0000 ZZZX=            -12.8535
 ZZZY=              0.0020 XXYY=            -74.8195 XXZZ=            -63.1664 YYZZ=            -69.5670
 XXYZ=              0.0008 YYXZ=              0.0920 ZZXY=             -0.0010
 N-N= 1.989601775866D+02 E-N=-9.424845418599D+02  KE= 2.326770602599D+02
 Calculating spin-rotation constants.
 Leave Link  601 at Sun Dec  5 16:44:22 2021, MaxMem=  1342177280 cpu:         8.0
 (Enter /opt/g09/l9999.exe)
 1\1\GINC-NODE17\SP\RB3LYP\6-311+G(2d,p)\C4H10O1\GUOSIBEI\05-Dec-2021\0
 \\#p b3lyp 6-311+g(2d,p) EmpiricalDispersion=GD3 NMR geom=allcheck gue
 ss=read\\gdb 55 4.69474 4.66938 4.47909 1.384 49.04 -0.2601 0.0664 0.3
 265 449.0573 0.134977 -233.560626 -233.553779 -233.552834 -233.589759 
 25.128\\0,1\C,0,-0.0091119107,1.5430837909,0.0023313887\C,0,0.00351777
 9,0.0076215941,0.0204834434\C,0,0.7608560301,-0.5181410444,1.248546137
 6\C,0,-1.4207331906,-0.5490988015,-0.0203745675\O,0,0.6245910004,-0.48
 48445208,-1.1777735914\H,0,1.0141114044,1.9384984917,0.0018766308\H,0,
 -0.5151651551,1.9040986776,-0.8976089952\H,0,-0.5222305458,1.949087389
 8,0.8803447514\H,0,0.2809136864,-0.2009505992,2.1802549143\H,0,0.79793
 62697,-1.611074011,1.2276624726\H,0,1.7907608842,-0.1406096665,1.25891
 06195\H,0,-1.9360037389,-0.1980778222,-0.9190510991\H,0,-1.3965277112,
 -1.6423071585,-0.0458457224\H,0,-1.9889818334,-0.2300247889,0.85843075
 68\H,0,1.5331970316,-0.1537215313,-1.1914871396\\Version=EM64L-G09RevD
 .01\State=1-A\HF=-233.7677579\RMSD=9.600e-09\Dipole=0.2132992,0.376417
 2,0.4907981\Quadrupole=2.1978083,-0.6676109,-1.5301974,0.4594145,-0.71
 36257,-1.0786543\PG=C01 [X(C4H10O1)]\\@


 ART, GLORY, FREEDOM FAIL, BUT NATURE STILL IS FAIR.

                                           -- BYRON
 Job cpu time:       0 days  0 hours  3 minutes 27.3 seconds.
 File lengths (MBytes):  RWF=     18 Int=      0 D2E=      0 Chk=      4 Scr=      1
 Normal termination of Gaussian 09 at Sun Dec  5 16:44:22 2021.
